/*--------------------------------*- C++ -*----------------------------------*\
  =========                 |
  \\      /  F ield         | OpenFOAM: The Open Source CFD Toolbox
   \\    /   O peration     | Website:  https://openfoam.org
    \\  /    A nd           | Version:  6
     \\/     M anipulation  |
\*---------------------------------------------------------------------------*/
FoamFile
{
    version     2.0;
    format      ascii;
    class       volScalarField;
    location    "604800";
    object      Cg0;
}
// * * * * * * * * * * * * * * * * * * * * * * * * * * * * * * * * * * * * * //

dimensions      [1 -3 0 0 0 0 0];

internalField   nonuniform List<scalar> 
184
(
4.34187e-10
4.34187e-10
4.34179e-10
4.34297e-10
4.40752e-10
6.00511e-10
4.30659e-09
5.46231e-09
1.04563e-07
0.000531252
0.00371978
0.00919271
0.0164224
0.0246896
0.03342
0.0422336
0.0509033
0.0593034
0.0673715
0.0750823
0.0824321
0.0894285
0.0960856
0.10242
0.108449
0.11419
0.11966
0.12461
0.118599
0.112609
0.106887
0.101416
0.0961819
0.0911728
0.0863772
0.0817851
0.0773871
0.0731746
0.0691398
0.0652754
0.0615743
0.0580303
0.0546371
0.051389
0.0482805
0.0453063
0.0424612
0.0397405
0.0371395
0.0346536
0.0322786
0.0300101
0.0278441
0.0257768
0.0238042
0.0219228
0.020129
0.0184192
0.0167903
0.0152389
0.0137619
0.0123563
0.0110192
0.0097477
0.008539
0.00739028
0.00629974
0.00526452
0.0042812
0.00334977
0.00246703
0.00162909
0.000834899
8.67164e-05
2.03866e-06
6.73103e-07
2.70304e-07
1.21591e-07
4.88779e-08
2.09932e-08
9.20028e-09
4.73153e-09
4.08113e-09
4.79903e-09
4.50134e-09
3.81383e-09
5.13606e-09
5.44925e-09
5.32686e-09
5.42526e-09
5.43868e-09
5.50938e-09
5.22257e-09
4.95032e-09
4.69175e-09
4.44613e-09
4.21282e-09
3.99129e-09
3.78104e-09
3.58161e-09
3.39256e-09
3.21345e-09
3.04388e-09
2.88345e-09
2.73176e-09
2.58843e-09
2.45308e-09
2.32535e-09
2.2049e-09
2.09136e-09
1.98443e-09
1.88376e-09
1.78906e-09
1.70002e-09
1.61636e-09
1.53779e-09
1.46405e-09
1.39488e-09
1.33003e-09
1.26926e-09
1.21236e-09
1.1591e-09
1.10927e-09
1.06268e-09
1.01915e-09
9.78485e-10
9.40524e-10
9.05103e-10
8.7207e-10
8.4128e-10
8.12596e-10
7.85888e-10
7.61034e-10
7.37919e-10
7.16436e-10
6.96482e-10
6.77969e-10
6.60781e-10
6.44249e-10
6.29204e-10
6.12715e-10
5.93282e-10
5.74128e-10
5.55297e-10
5.37143e-10
5.20027e-10
5.04209e-10
4.89836e-10
4.7695e-10
4.65508e-10
4.55411e-10
4.46523e-10
4.38696e-10
4.31781e-10
4.25641e-10
4.20156e-10
4.15227e-10
4.10779e-10
4.06752e-10
4.03108e-10
3.99824e-10
3.96889e-10
3.94303e-10
3.92074e-10
3.90218e-10
3.88757e-10
3.87714e-10
3.87119e-10
3.86984e-10
3.87338e-10
3.882e-10
3.89576e-10
3.91461e-10
3.93843e-10
3.96694e-10
3.99974e-10
4.03632e-10
4.07608e-10
4.11834e-10
4.16236e-10
4.20743e-10
4.2528e-10
4.29783e-10
4.34187e-10
)
;

boundaryField
{
    bc0
    {
        type            zeroGradient;
    }
    bc1
    {
        type            zeroGradient;
    }
    bc2
    {
        type            zeroGradient;
    }
    bc3
    {
        type            zeroGradient;
    }
    top
    {
        type            zeroGradient;
    }
    bottom
    {
        type            zeroGradient;
    }
}


// ************************************************************************* //
