/*--------------------------------*- C++ -*----------------------------------*\
  =========                 |
  \\      /  F ield         | OpenFOAM: The Open Source CFD Toolbox
   \\    /   O peration     | Website:  https://openfoam.org
    \\  /    A nd           | Version:  6
     \\/     M anipulation  |
\*---------------------------------------------------------------------------*/
FoamFile
{
    version     2.0;
    format      ascii;
    class       volScalarField;
    location    "604800";
    object      Cg1;
}
// * * * * * * * * * * * * * * * * * * * * * * * * * * * * * * * * * * * * * //

dimensions      [1 -3 0 0 0 0 0];

internalField   nonuniform List<scalar> 
184
(
0.000874926
0.000874926
0.000874922
0.000876009
0.000896814
0.00122034
0.00456171
0.0187869
0.0426416
0.0620015
0.0705717
0.0770153
0.0818488
0.085515
0.0883516
0.090596
0.0924124
0.0939144
0.0951817
0.096271
0.0972233
0.0980687
0.0988296
0.0995233
0.100163
0.100758
0.101318
0.101752
0.103142
0.104378
0.105561
0.106694
0.107781
0.108824
0.109827
0.110792
0.11172
0.112614
0.113475
0.114304
0.115103
0.115874
0.116618
0.117335
0.118027
0.118695
0.11934
0.119963
0.120564
0.121144
0.121705
0.122247
0.12277
0.123275
0.123764
0.124236
0.124693
0.125134
0.125561
0.125974
0.126373
0.126759
0.127133
0.127494
0.127845
0.128185
0.128511
0.128828
0.129137
0.129437
0.129719
0.130002
0.130281
0.130548
0.126902
0.122718
0.118641
0.114677
0.110823
0.107077
0.103439
0.0999046
0.0964729
0.0931412
0.0899074
0.0867691
0.0837241
0.0807705
0.0779059
0.0751284
0.072436
0.0698266
0.0672983
0.0648491
0.0624773
0.0601809
0.057958
0.055807
0.053726
0.0517132
0.049767
0.0478857
0.0460676
0.0443111
0.0426145
0.0409763
0.039395
0.0378691
0.036397
0.0349774
0.0336088
0.0322899
0.0310192
0.0297955
0.0286174
0.0274838
0.0263932
0.0253446
0.0243367
0.0233683
0.0224385
0.021546
0.0206898
0.0198689
0.0190823
0.018329
0.0176081
0.0169186
0.0162598
0.0156307
0.0150306
0.0144585
0.0139139
0.0133959
0.0129039
0.0124371
0.011995
0.0115768
0.0111762
0.0107773
0.0103461
0.00986789
0.00935461
0.00881205
0.00824987
0.00767862
0.00710854
0.00654884
0.00600735
0.00549034
0.00500251
0.00454706
0.00412587
0.00373971
0.00338839
0.00307101
0.00278613
0.00253191
0.00230626
0.00210698
0.0019318
0.00177847
0.00164482
0.00152877
0.00142839
0.00134188
0.00126759
0.00120402
0.0011498
0.00110372
0.00106467
0.0010317
0.00100392
0.000980566
0.000960969
0.000944525
0.00093069
0.000919066
0.000909147
0.000900639
0.000893217
0.000886607
0.000880576
0.000874925
)
;

boundaryField
{
    bc0
    {
        type            zeroGradient;
    }
    bc1
    {
        type            zeroGradient;
    }
    bc2
    {
        type            zeroGradient;
    }
    bc3
    {
        type            zeroGradient;
    }
    top
    {
        type            zeroGradient;
    }
    bottom
    {
        type            zeroGradient;
    }
}


// ************************************************************************* //
