/*--------------------------------*- C++ -*----------------------------------*\
  =========                 |
  \\      /  F ield         | OpenFOAM: The Open Source CFD Toolbox
   \\    /   O peration     | Website:  https://openfoam.org
    \\  /    A nd           | Version:  6
     \\/     M anipulation  |
\*---------------------------------------------------------------------------*/
FoamFile
{
    version     2.0;
    format      ascii;
    class       volScalarField;
    location    "604800";
    object      Cg3;
}
// * * * * * * * * * * * * * * * * * * * * * * * * * * * * * * * * * * * * * //

dimensions      [1 -3 0 0 0 0 0];

internalField   nonuniform List<scalar> 
184
(
0.199841
0.199841
0.199831
0.199173
0.190267
0.139938
0.0764474
0.0352587
0.0101206
1.30652e-76
7.07492e-06
1.72425e-05
1.48992e-05
1.27793e-05
1.09864e-05
9.46687e-06
8.1627e-06
7.02629e-06
6.02132e-06
5.12062e-06
4.30388e-06
3.55573e-06
2.86415e-06
2.22205e-06
1.6204e-06
1.05244e-06
5.15117e-07
3.10083e-75
8.67315e-07
1.6916e-06
2.48575e-06
3.24589e-06
3.97939e-06
4.68707e-06
5.37097e-06
6.03272e-06
6.67372e-06
7.2952e-06
7.89823e-06
8.48374e-06
9.05257e-06
9.60548e-06
1.01431e-05
1.06662e-05
1.11752e-05
1.16708e-05
1.21534e-05
1.26236e-05
1.30818e-05
1.35284e-05
1.39637e-05
1.4388e-05
1.48012e-05
1.5203e-05
1.5593e-05
1.59702e-05
1.63336e-05
1.66823e-05
1.70157e-05
1.73339e-05
1.76355e-05
1.79086e-05
1.81016e-05
1.80371e-05
1.71442e-05
1.59733e-05
1.7712e-05
1.70765e-05
1.5166e-05
1.11495e-05
1.80151e-05
1.70333e-05
5.52933e-06
2.04304e-06
0.00460025
0.00989551
0.0150839
0.0201611
0.0251265
0.0299811
0.0347258
0.0393622
0.0438917
0.048316
0.0526368
0.0568558
0.0609746
0.064995
0.0689185
0.0727468
0.0764815
0.080124
0.0836759
0.0871388
0.0905141
0.0938033
0.0970078
0.100129
0.103168
0.106127
0.109007
0.111809
0.114535
0.117186
0.119763
0.122268
0.124701
0.127065
0.12936
0.131587
0.133749
0.135845
0.137877
0.139847
0.141755
0.143603
0.145391
0.147121
0.148793
0.15041
0.151971
0.153478
0.154932
0.156333
0.157683
0.158983
0.160233
0.161434
0.162587
0.163694
0.164753
0.165767
0.166737
0.167662
0.168543
0.169382
0.170178
0.170933
0.171654
0.172381
0.173164
0.174026
0.174969
0.175984
0.177058
0.178175
0.179319
0.180476
0.181631
0.182773
0.183892
0.184978
0.186025
0.187028
0.187984
0.18889
0.189746
0.190551
0.191305
0.192011
0.192669
0.193282
0.193852
0.194381
0.194872
0.195327
0.195749
0.196141
0.196504
0.19684
0.197154
0.197445
0.197716
0.19797
0.198208
0.19843
0.19864
0.198838
0.199025
0.199203
0.199373
0.199535
0.199691
0.19984
)
;

boundaryField
{
    bc0
    {
        type            zeroGradient;
    }
    bc1
    {
        type            zeroGradient;
    }
    bc2
    {
        type            zeroGradient;
    }
    bc3
    {
        type            zeroGradient;
    }
    top
    {
        type            zeroGradient;
    }
    bottom
    {
        type            zeroGradient;
    }
}


// ************************************************************************* //
