/*--------------------------------*- C++ -*----------------------------------*\
  =========                 |
  \\      /  F ield         | OpenFOAM: The Open Source CFD Toolbox
   \\    /   O peration     | Website:  https://openfoam.org
    \\  /    A nd           | Version:  6
     \\/     M anipulation  |
\*---------------------------------------------------------------------------*/
FoamFile
{
    version     2.0;
    format      ascii;
    class       volScalarField;
    location    "604800";
    object      Cw3;
}
// * * * * * * * * * * * * * * * * * * * * * * * * * * * * * * * * * * * * * //

dimensions      [0 -3 0 0 1 0 0];

internalField   nonuniform List<scalar> 
184
(
0.000165027
0.000165027
0.000165021
0.000164926
0.000164929
0.00016495
0.000164962
0.000164966
0.000164968
0.000164973
0.000164978
0.000164984
0.000164992
0.000165
0.000165001
0.000165012
0.000165009
0.00016502
0.000165015
0.000165025
0.000165019
0.000165029
0.000165013
0.000164772
0.000157819
7.63607e-06
-0.00221824
-0.0160257
-0.0015035
7.61075e-05
0.00016198
0.000164955
0.000165033
0.000165025
0.000165034
0.000165024
0.000165033
0.000165024
0.000165032
0.000165023
0.000165032
0.000165023
0.000165031
0.000165023
0.000165031
0.000165023
0.00016503
0.000165023
0.00016503
0.000165024
0.00016503
0.000165024
0.00016503
0.000165024
0.00016503
0.000165024
0.000165029
0.000165024
0.000165029
0.000165024
0.000165029
0.000165024
0.000165029
0.000165025
0.000165029
0.000165025
0.000165029
0.000165025
0.000165029
0.000165025
0.000165029
0.000165025
0.000165029
0.000165025
0.000165029
0.000165025
0.000165029
0.000165025
0.000165029
0.000165025
0.000165029
0.000165025
0.000165029
0.000165026
0.000165029
0.000165026
0.000165028
0.000165026
0.000165028
0.000165026
0.000165027
0.000165028
0.000165026
0.000165028
0.000165026
0.000165028
0.000165026
0.000165028
0.000165026
0.000165028
0.000165026
0.000165028
0.000165026
0.000165027
0.000165027
0.000165027
0.000165027
0.000165027
0.000165027
0.000165027
0.000165027
0.000165027
0.000165036
0.000165018
0.000165027
0.000165027
0.000165027
0.000165027
0.000165027
0.000165027
0.000165027
0.000165027
0.000165027
0.000165027
0.000165027
0.000165027
0.000165027
0.000165027
0.000165027
0.000165027
0.000165027
0.000165027
0.000165034
0.00016502
0.000165027
0.000165028
0.000165054
0.000165188
0.000163944
0.00016407
0.000174685
0.000175327
0.000174216
0.000173183
0.000172387
0.000171697
0.000170988
0.000170173
0.000169202
0.000168054
0.000166735
0.000165268
0.000163688
0.000162036
0.000160355
0.000158681
0.000157045
0.00015547
0.00015397
0.000152554
0.000151223
0.000149979
0.000148819
0.000147741
0.000146742
0.00014582
0.000144974
0.000144201
0.000143499
0.000142866
0.0001423
0.000141797
0.000141355
0.000140975
0.000140662
0.000140432
0.000140315
0.000140315
0.000140601
0.000141444
0.000143344
0.000147231
0.00015456
0.000165027
)
;

boundaryField
{
    bc0
    {
        type            zeroGradient;
    }
    bc1
    {
        type            zeroGradient;
    }
    bc2
    {
        type            zeroGradient;
    }
    bc3
    {
        type            zeroGradient;
    }
    top
    {
        type            zeroGradient;
    }
    bottom
    {
        type            zeroGradient;
    }
}


// ************************************************************************* //
