/*--------------------------------*- C++ -*----------------------------------*\
  =========                 |
  \\      /  F ield         | OpenFOAM: The Open Source CFD Toolbox
   \\    /   O peration     | Website:  https://openfoam.org
    \\  /    A nd           | Version:  6
     \\/     M anipulation  |
\*---------------------------------------------------------------------------*/
FoamFile
{
    version     2.0;
    format      ascii;
    class       volScalarField;
    location    "604800";
    object      Cw5;
}
// * * * * * * * * * * * * * * * * * * * * * * * * * * * * * * * * * * * * * //

dimensions      [0 -3 0 0 1 0 0];

internalField   nonuniform List<scalar> 
184
(
0.000461667
0.000461667
0.000461651
0.000461442
0.000462191
0.000473575
0.000587792
0.00107114
0.00188129
0.00253895
0.00283004
0.00304876
0.00321288
0.00333744
0.00343388
0.00351026
0.00357208
0.00362326
0.00366643
0.00370359
0.00373603
0.00376489
0.00379083
0.00381475
0.0038434
0.00401292
0.00625456
0.0200582
0.00560234
0.00406786
0.00402282
0.00405841
0.00409529
0.00413072
0.00416482
0.00419756
0.00422912
0.00425946
0.00428873
0.00431689
0.00434408
0.00437026
0.00439555
0.00441991
0.00444346
0.00446614
0.00448808
0.00450923
0.00452968
0.0045494
0.00456847
0.00458687
0.00460467
0.00462183
0.00463843
0.00465445
0.00467016
0.00468518
0.00469968
0.00471371
0.00472727
0.00474031
0.00475299
0.00476529
0.00477724
0.00478882
0.00479992
0.00481068
0.00482119
0.00483125
0.00484067
0.0048498
0.00485822
0.00486479
0.00474243
0.00460138
0.0044634
0.00432891
0.00419808
0.00407087
0.00394729
0.00382723
0.00371066
0.00359747
0.00348762
0.003381
0.00327757
0.00317722
0.00307991
0.00298554
0.00289408
0.00280543
0.00271954
0.00263634
0.00255576
0.00247775
0.00240223
0.00232915
0.00225845
0.00219008
0.00212395
0.00206005
0.00199827
0.0019386
0.00188096
0.00182531
0.00177159
0.00171975
0.00166973
0.0016215
0.00157501
0.0015302
0.00148705
0.00144543
0.00140543
0.00136692
0.00132986
0.00129424
0.00125999
0.00122709
0.0011955
0.00116518
0.00113609
0.0011082
0.00108147
0.00105588
0.00103138
0.00100796
0.000985573
0.000964198
0.000943806
0.00092437
0.000905884
0.00088825
0.000871555
0.000855708
0.000840778
0.000826967
0.000810197
0.000797088
0.000810298
0.000795705
0.000775295
0.000754084
0.000732833
0.000711558
0.000690281
0.000669085
0.000648103
0.000627495
0.000607432
0.000588082
0.000569602
0.000552123
0.00053575
0.000520548
0.000506548
0.000493748
0.000482116
0.000471596
0.00046212
0.000453612
0.000445993
0.000439186
0.00043312
0.00042773
0.000422953
0.000418735
0.000415024
0.000411774
0.000408938
0.000406478
0.000404357
0.00040255
0.000401049
0.000399876
0.000399088
0.000398681
0.000399081
0.000400987
0.000405689
0.000415612
0.00043454
0.000461667
)
;

boundaryField
{
    bc0
    {
        type            zeroGradient;
    }
    bc1
    {
        type            zeroGradient;
    }
    bc2
    {
        type            zeroGradient;
    }
    bc3
    {
        type            zeroGradient;
    }
    top
    {
        type            zeroGradient;
    }
    bottom
    {
        type            zeroGradient;
    }
}


// ************************************************************************* //
