/*--------------------------------*- C++ -*----------------------------------*\
  =========                 |
  \\      /  F ield         | OpenFOAM: The Open Source CFD Toolbox
   \\    /   O peration     | Website:  https://openfoam.org
    \\  /    A nd           | Version:  6
     \\/     M anipulation  |
\*---------------------------------------------------------------------------*/
FoamFile
{
    version     2.0;
    format      ascii;
    class       volScalarField;
    location    "604800";
    object      Cw9;
}
// * * * * * * * * * * * * * * * * * * * * * * * * * * * * * * * * * * * * * //

dimensions      [0 -3 0 0 1 0 0];

internalField   nonuniform List<scalar> 
184
(
0.000199422
0.000199422
0.000199415
0.0001993
0.000199305
0.000199332
0.000199345
0.000199349
0.000199352
0.000199357
0.000199363
0.000199371
0.00019938
0.00019939
0.00019939
0.000199403
0.0001994
0.000199413
0.000199408
0.00019942
0.000199413
0.000199425
0.000199416
0.000199428
0.000199418
0.000199435
0.00019949
0.000199922
0.00019947
0.000199434
0.000199419
0.000199425
0.000199431
0.000199419
0.00019943
0.000199419
0.000199429
0.000199418
0.000199428
0.000199418
0.000199428
0.000199417
0.000199427
0.000199417
0.000199426
0.000199417
0.000199426
0.000199418
0.000199426
0.000199418
0.000199426
0.000199418
0.000199426
0.000199418
0.000199425
0.000199419
0.000199425
0.000199419
0.000199425
0.000199419
0.000199425
0.000199419
0.000199425
0.000199419
0.000199425
0.000199419
0.000199425
0.00019942
0.000199425
0.00019942
0.000199425
0.00019942
0.000199424
0.00019942
0.000199424
0.00019942
0.000199424
0.00019942
0.000199424
0.00019942
0.000199424
0.00019942
0.000199424
0.00019942
0.000199424
0.00019942
0.000199424
0.00019942
0.000199424
0.00019942
0.000199422
0.000199424
0.000199421
0.000199424
0.000199421
0.000199424
0.000199421
0.000199424
0.000199421
0.000199424
0.000199421
0.000199424
0.000199421
0.000199422
0.000199422
0.000199422
0.000199422
0.000199422
0.000199422
0.000199422
0.000199422
0.000199422
0.000199433
0.000199411
0.000199422
0.000199422
0.000199422
0.000199422
0.000199422
0.000199422
0.000199422
0.000199422
0.000199422
0.000199422
0.000199422
0.000199422
0.000199422
0.000199422
0.000199422
0.000199422
0.000199422
0.000199422
0.000199431
0.000199414
0.000199422
0.000199424
0.000199455
0.000199617
0.000198114
0.000198266
0.000211094
0.00021187
0.000210527
0.000209278
0.000208316
0.000207483
0.000206626
0.000205641
0.000204467
0.00020308
0.000201486
0.000199713
0.000197804
0.000195808
0.000193777
0.000191754
0.000189777
0.000187874
0.000186061
0.00018435
0.000182742
0.000181239
0.000179837
0.000178534
0.000177327
0.000176213
0.00017519
0.000174256
0.000173408
0.000172643
0.000171959
0.000171351
0.000170817
0.000170358
0.00016998
0.000169702
0.000169561
0.00016956
0.000169906
0.000170925
0.00017322
0.000177918
0.000186774
0.000199422
)
;

boundaryField
{
    bc0
    {
        type            zeroGradient;
    }
    bc1
    {
        type            zeroGradient;
    }
    bc2
    {
        type            zeroGradient;
    }
    bc3
    {
        type            zeroGradient;
    }
    top
    {
        type            zeroGradient;
    }
    bottom
    {
        type            zeroGradient;
    }
}


// ************************************************************************* //
