/*--------------------------------*- C++ -*----------------------------------*\
  =========                 |
  \\      /  F ield         | OpenFOAM: The Open Source CFD Toolbox
   \\    /   O peration     | Website:  https://openfoam.org
    \\  /    A nd           | Version:  6
     \\/     M anipulation  |
\*---------------------------------------------------------------------------*/
FoamFile
{
    version     2.0;
    format      ascii;
    class       volScalarField;
    location    "604800";
    object      hp;
}
// * * * * * * * * * * * * * * * * * * * * * * * * * * * * * * * * * * * * * //

dimensions      [0 1 0 0 0 0 0];

internalField   nonuniform List<scalar> 
184
(
0.02
0.0100004
8.41199e-07
-0.00999864
-0.019998
-0.0299971
-0.039996
-0.0499946
-0.0599927
-0.0699901
-0.0799867
-0.0899823
-0.0999766
-0.109969
-0.11996
-0.129947
-0.139932
-0.149913
-0.15989
-0.169861
-0.179826
-0.189785
-0.199736
-0.209679
-0.219612
-0.229536
-0.23945
-0.249353
-0.259246
-0.26913
-0.279003
-0.288869
-0.298727
-0.30858
-0.31843
-0.32828
-0.338132
-0.347988
-0.357853
-0.367727
-0.377614
-0.387515
-0.397433
-0.407367
-0.417318
-0.427286
-0.437271
-0.44727
-0.45728
-0.467302
-0.477333
-0.487371
-0.497414
-0.507463
-0.517514
-0.527568
-0.537622
-0.547678
-0.557734
-0.567789
-0.577845
-0.5879
-0.597955
-0.608009
-0.618063
-0.628117
-0.63817
-0.648224
-0.658276
-0.668329
-0.678382
-0.688434
-0.698486
-0.708538
-0.71859
-0.728642
-0.738693
-0.748745
-0.758796
-0.768848
-0.778899
-0.78895
-0.799
-0.809051
-0.819101
-0.82915
-0.839199
-0.849247
-0.859293
-0.869339
-0.879384
-0.889429
-0.899475
-0.90952
-0.919567
-0.929615
-0.939663
-0.949711
-0.959759
-0.969805
-0.979848
-0.989887
-0.999921
-1.00995
-1.01997
-1.02999
-1.04
-1.05002
-1.06005
-1.07009
-1.08017
-1.09027
-1.10041
-1.11056
-1.1207
-1.13082
-1.1409
-1.15095
-1.16098
-1.17099
-1.181
-1.191
-1.201
-1.211
-1.221
-1.231
-1.241
-1.25101
-1.26102
-1.27105
-1.28112
-1.29123
-1.3014
-1.31158
-1.32175
-1.33187
-1.34183
-1.34691
-1.22374
-0.794703
-0.540223
-0.413284
-0.342153
-0.29795
-0.268369
-0.247525
-0.232298
-0.220895
-0.212213
-0.20554
-0.200392
-0.196432
-0.193417
-0.191166
-0.189546
-0.188452
-0.187805
-0.187541
-0.187612
-0.187979
-0.188611
-0.189484
-0.190581
-0.191886
-0.19339
-0.195087
-0.196973
-0.199048
-0.201314
-0.203777
-0.206444
-0.209328
-0.212442
-0.215806
-0.219441
-0.223378
-0.227649
-0.2323
-0.237382
-0.242963
-0.249127
-0.255983
-0.263673
-0.272388
)
;

boundaryField
{
    bc0
    {
        type            fixedGradient;
        gradient        uniform -1;
    }
    bc1
    {
        type            zeroGradient;
    }
    bc2
    {
        type            zeroGradient;
    }
    bc3
    {
        type            zeroGradient;
    }
    top
    {
        type            zeroGradient;
    }
    bottom
    {
        type            zeroGradient;
    }
}


// ************************************************************************* //
