/*--------------------------------*- C++ -*----------------------------------*\
  =========                 |
  \\      /  F ield         | OpenFOAM: The Open Source CFD Toolbox
   \\    /   O peration     | Website:  https://openfoam.org
    \\  /    A nd           | Version:  6
     \\/     M anipulation  |
\*---------------------------------------------------------------------------*/
FoamFile
{
    version     2.0;
    format      ascii;
    class       surfaceScalarField;
    location    "604800";
    object      phiw;
}
// * * * * * * * * * * * * * * * * * * * * * * * * * * * * * * * * * * * * * //

dimensions      [0 3 -1 0 0 0 0];

internalField   nonuniform List<scalar> 
183
(
-5.78777e-07
-1.03166e-10
-9.9186e-11
-9.93137e-11
-9.93764e-11
-9.93648e-11
-9.92761e-11
-9.91109e-11
-9.8871e-11
-9.85566e-11
-9.81655e-11
-9.76917e-11
-9.71262e-11
-9.64567e-11
-9.56685e-11
-9.47444e-11
-9.36659e-11
-9.24131e-11
-9.0966e-11
-8.93044e-11
-8.74093e-11
-8.52634e-11
-8.28517e-11
-8.01632e-11
-7.71911e-11
-7.39342e-11
-7.03979e-11
-6.65946e-11
-6.25449e-11
-5.82774e-11
-5.38291e-11
-4.92451e-11
-4.45774e-11
-3.9884e-11
-3.52268e-11
-3.06699e-11
-2.62767e-11
-2.21072e-11
-1.82155e-11
-1.46474e-11
-1.14377e-11
-8.60928e-12
-6.17187e-12
-4.1223e-12
-2.44533e-12
-1.11457e-12
-1.10243e-13
6.64294e-13
1.20555e-12
1.56484e-12
1.7783e-12
1.87877e-12
1.89561e-12
1.85391e-12
1.77411e-12
1.67215e-12
1.55976e-12
1.44514e-12
1.33358e-12
1.22819e-12
1.13052e-12
1.04108e-12
9.5972e-13
8.85959e-13
8.19148e-13
7.58598e-13
7.03644e-13
6.53673e-13
6.08142e-13
5.66569e-13
5.28534e-13
4.93669e-13
4.61651e-13
4.32197e-13
4.05055e-13
3.79998e-13
3.5682e-13
3.35329e-13
3.15338e-13
2.96659e-13
2.79097e-13
2.62448e-13
2.46505e-13
2.31088e-13
2.16076e-13
2.01464e-13
1.87408e-13
1.74227e-13
1.62343e-13
1.5216e-13
1.43896e-13
1.37468e-13
1.32473e-13
1.28289e-13
1.24235e-13
1.19709e-13
1.14228e-13
1.07406e-13
9.89205e-14
8.85591e-14
7.63754e-14
6.28845e-14
4.91824e-14
3.68951e-14
2.79937e-14
2.462e-14
2.89754e-14
4.30249e-14
6.75586e-14
1.00489e-13
1.35328e-13
1.61818e-13
1.69995e-13
1.55911e-13
1.24466e-13
8.64878e-14
5.24368e-14
2.78544e-14
1.30312e-14
5.40028e-15
1.99615e-15
6.71034e-16
2.41499e-16
2.13492e-16
5.41069e-16
1.5941e-15
4.3448e-15
1.06114e-14
2.28518e-14
4.26634e-14
6.77813e-14
8.99164e-14
9.79718e-14
8.64927e-14
4.69394e-14
-5.89817e-13
-1.69506e-11
-1.26469e-10
-1.53723e-09
-7.42383e-09
-1.34581e-08
-1.72816e-08
-2.00574e-08
-2.21371e-08
-2.36733e-08
-2.4767e-08
-2.54973e-08
-2.59287e-08
-2.61137e-08
-2.60958e-08
-2.59103e-08
-2.55865e-08
-2.51484e-08
-2.46159e-08
-2.40054e-08
-2.33307e-08
-2.26031e-08
-2.18322e-08
-2.10261e-08
-2.01917e-08
-1.93346e-08
-1.84598e-08
-1.75716e-08
-1.66735e-08
-1.57686e-08
-1.48599e-08
-1.39496e-08
-1.304e-08
-1.21331e-08
-1.12305e-08
-1.0334e-08
-9.44523e-09
-8.56558e-09
-7.69658e-09
-6.8397e-09
-5.99646e-09
-5.16841e-09
-4.35722e-09
-3.56467e-09
-2.7927e-09
-2.0435e-09
-1.31952e-09
-6.23573e-10
)
;

boundaryField
{
    bc0
    {
        type            calculated;
        value           uniform 0;
    }
    bc1
    {
        type            calculated;
        value           uniform 0;
    }
    bc2
    {
        type            calculated;
        value           uniform 2.31482e-06;
    }
    bc3
    {
        type            calculated;
        value           uniform 0;
    }
    top
    {
        type            calculated;
        value           uniform 0;
    }
    bottom
    {
        type            calculated;
        value           uniform 0;
    }
}


// ************************************************************************* //
