/*--------------------------------*- C++ -*----------------------------------*\
  =========                 |
  \\      /  F ield         | OpenFOAM: The Open Source CFD Toolbox
   \\    /   O peration     | Website:  https://openfoam.org
    \\  /    A nd           | Version:  6
     \\/     M anipulation  |
\*---------------------------------------------------------------------------*/
FoamFile
{
    version     2.0;
    format      ascii;
    class       volVectorField;
    location    "604800";
    object      Uw;
}
// * * * * * * * * * * * * * * * * * * * * * * * * * * * * * * * * * * * * * //

dimensions      [0 1 -1 0 0 0 0];

internalField   nonuniform List<vector> 
184
(
(0 -1.4468e-06 0)
(0 -2.8944e-07 0)
(0 -1.01176e-10 0)
(0 -9.92498e-11 0)
(0 -9.9345e-11 0)
(0 -9.93706e-11 0)
(0 -9.93204e-11 0)
(0 -9.91935e-11 0)
(0 -9.89909e-11 0)
(0 -9.87138e-11 0)
(0 -9.8361e-11 0)
(0 -9.79286e-11 0)
(0 -9.74089e-11 0)
(0 -9.67915e-11 0)
(0 -9.60626e-11 0)
(0 -9.52065e-11 0)
(0 -9.42051e-11 0)
(0 -9.30395e-11 0)
(0 -9.16896e-11 0)
(0 -9.01352e-11 0)
(0 -8.83569e-11 0)
(0 -8.63364e-11 0)
(0 -8.40576e-11 0)
(0 -8.15075e-11 0)
(0 -7.86772e-11 0)
(0 -7.55627e-11 0)
(0 -7.21661e-11 0)
(0 -6.84963e-11 0)
(0 -6.45698e-11 0)
(0 -6.04111e-11 0)
(0 -5.60533e-11 0)
(0 -5.15371e-11 0)
(0 -4.69113e-11 0)
(0 -4.22307e-11 0)
(0 -3.75554e-11 0)
(0 -3.29484e-11 0)
(0 -2.84733e-11 0)
(0 -2.41919e-11 0)
(0 -2.01613e-11 0)
(0 -1.64315e-11 0)
(0 -1.30425e-11 0)
(0 -1.00235e-11 0)
(0 -7.39058e-12 0)
(0 -5.14708e-12 0)
(0 -3.28381e-12 0)
(0 -1.77995e-12 0)
(0 -6.12406e-13 0)
(0 2.77026e-13 0)
(0 9.34921e-13 0)
(0 1.3852e-12 0)
(0 1.67157e-12 0)
(0 1.82853e-12 0)
(0 1.88719e-12 0)
(0 1.87476e-12 0)
(0 1.81401e-12 0)
(0 1.72313e-12 0)
(0 1.61595e-12 0)
(0 1.50245e-12 0)
(0 1.38936e-12 0)
(0 1.28088e-12 0)
(0 1.17936e-12 0)
(0 1.0858e-12 0)
(0 1.0004e-12 0)
(0 9.2284e-13 0)
(0 8.52554e-13 0)
(0 7.88873e-13 0)
(0 7.31121e-13 0)
(0 6.78658e-13 0)
(0 6.30907e-13 0)
(0 5.87355e-13 0)
(0 5.47551e-13 0)
(0 5.11101e-13 0)
(0 4.7766e-13 0)
(0 4.46924e-13 0)
(0 4.18626e-13 0)
(0 3.92526e-13 0)
(0 3.68409e-13 0)
(0 3.46074e-13 0)
(0 3.25333e-13 0)
(0 3.05998e-13 0)
(0 2.87878e-13 0)
(0 2.70772e-13 0)
(0 2.54476e-13 0)
(0 2.38797e-13 0)
(0 2.23582e-13 0)
(0 2.0877e-13 0)
(0 1.94436e-13 0)
(0 1.80818e-13 0)
(0 1.68285e-13 0)
(0 1.57252e-13 0)
(0 1.48028e-13 0)
(0 1.40682e-13 0)
(0 1.3497e-13 0)
(0 1.30381e-13 0)
(0 1.26262e-13 0)
(0 1.21972e-13 0)
(0 1.16969e-13 0)
(0 1.10817e-13 0)
(0 1.03163e-13 0)
(0 9.37398e-14 0)
(0 8.24673e-14 0)
(0 6.963e-14 0)
(0 5.60335e-14 0)
(0 4.30388e-14 0)
(0 3.24444e-14 0)
(0 2.63069e-14 0)
(0 2.67977e-14 0)
(0 3.60001e-14 0)
(0 5.52917e-14 0)
(0 8.40235e-14 0)
(0 1.17908e-13 0)
(0 1.48573e-13 0)
(0 1.65907e-13 0)
(0 1.62953e-13 0)
(0 1.40189e-13 0)
(0 1.05477e-13 0)
(0 6.94623e-14 0)
(0 4.01456e-14 0)
(0 2.04428e-14 0)
(0 9.21572e-15 0)
(0 3.69821e-15 0)
(0 1.33359e-15 0)
(0 4.56267e-16 0)
(0 2.27496e-16 0)
(0 3.7728e-16 0)
(0 1.06758e-15 0)
(0 2.96945e-15 0)
(0 7.47812e-15 0)
(0 1.67316e-14 0)
(0 3.27576e-14 0)
(0 5.52224e-14 0)
(0 7.88488e-14 0)
(0 9.39441e-14 0)
(0 9.22323e-14 0)
(0 6.6716e-14 0)
(0 -2.71439e-13 0)
(0 -8.77018e-12 0)
(0 -7.17097e-11 0)
(0 -8.31848e-10 0)
(0 -4.48053e-09 0)
(0 -1.0441e-08 0)
(0 -1.53699e-08 0)
(0 -1.86695e-08 0)
(0 -2.10972e-08 0)
(0 -2.29052e-08 0)
(0 -2.42201e-08 0)
(0 -2.51322e-08 0)
(0 -2.5713e-08 0)
(0 -2.60212e-08 0)
(0 -2.61048e-08 0)
(0 -2.6003e-08 0)
(0 -2.57484e-08 0)
(0 -2.53675e-08 0)
(0 -2.48822e-08 0)
(0 -2.43107e-08 0)
(0 -2.3668e-08 0)
(0 -2.29669e-08 0)
(0 -2.22176e-08 0)
(0 -2.14292e-08 0)
(0 -2.06089e-08 0)
(0 -1.97631e-08 0)
(0 -1.88972e-08 0)
(0 -1.80157e-08 0)
(0 -1.71225e-08 0)
(0 -1.6221e-08 0)
(0 -1.53143e-08 0)
(0 -1.44048e-08 0)
(0 -1.34948e-08 0)
(0 -1.25866e-08 0)
(0 -1.16818e-08 0)
(0 -1.07823e-08 0)
(0 -9.88964e-09 0)
(0 -9.00541e-09 0)
(0 -8.13108e-09 0)
(0 -7.26814e-09 0)
(0 -6.41808e-09 0)
(0 -5.58244e-09 0)
(0 -4.76282e-09 0)
(0 -3.96094e-09 0)
(0 -3.17868e-09 0)
(0 -2.4181e-09 0)
(0 -1.68151e-09 0)
(0 -9.71548e-10 0)
(0 -3.11786e-10 0)
)
;

boundaryField
{
    bc0
    {
        type            zeroGradient;
    }
    bc1
    {
        type            zeroGradient;
    }
    bc2
    {
        type            zeroGradient;
    }
    bc3
    {
        type            zeroGradient;
    }
    top
    {
        type            zeroGradient;
    }
    bottom
    {
        type            zeroGradient;
    }
}


// ************************************************************************* //
