/*--------------------------------*- C++ -*----------------------------------*\
  =========                 |
  \\      /  F ield         | OpenFOAM: The Open Source CFD Toolbox
   \\    /   O peration     | Website:  https://openfoam.org
    \\  /    A nd           | Version:  6
     \\/     M anipulation  |
\*---------------------------------------------------------------------------*/
FoamFile
{
    version     2.0;
    format      ascii;
    class       volScalarField;
    location    "69120";
    object      h;
}
// * * * * * * * * * * * * * * * * * * * * * * * * * * * * * * * * * * * * * //

dimensions      [0 1 0 0 0 0 0];

internalField   nonuniform List<scalar> 
100
(
2.198
2.196
2.194
2.192
2.19
2.188
2.186
2.184
2.182
2.18
2.178
2.176
2.174
2.172
2.17
2.168
2.166
2.164
2.162
2.16
2.158
2.156
2.154
2.152
2.15
2.148
2.146
2.144
2.142
2.14
2.138
2.136
2.134
2.132
2.13
2.128
2.126
2.124
2.122
2.12
2.118
2.116
2.114
2.112
2.11
2.108
2.106
2.104
2.102
2.1
2.098
2.096
2.094
2.092
2.09
2.088
2.086
2.084
2.082
2.08
2.078
2.076
2.074
2.072
2.07
2.068
2.066
2.064
2.062
2.06
2.058
2.056
2.054
2.052
2.05
2.048
2.046
2.044
2.042
2.04
2.038
2.036
2.034
2.032
2.03
2.028
2.026
2.024
2.022
2.02
2.018
2.016
2.014
2.012
2.01
2.008
2.006
2.004
2.002
2
)
;

boundaryField
{
    bc0
    {
        type            zeroGradient;
    }
    bc1
    {
        type            zeroGradient;
    }
    bc2
    {
        type            zeroGradient;
    }
    bc3
    {
        type            zeroGradient;
    }
    top
    {
        type            zeroGradient;
    }
    bottom
    {
        type            zeroGradient;
    }
}


// ************************************************************************* //
