/*--------------------------------*- C++ -*----------------------------------*\
  =========                 |
  \\      /  F ield         | OpenFOAM: The Open Source CFD Toolbox
   \\    /   O peration     | Website:  https://openfoam.org
    \\  /    A nd           | Version:  6
     \\/     M anipulation  |
\*---------------------------------------------------------------------------*/
FoamFile
{
    version     2.0;
    format      ascii;
    class       volScalarField;
    location    "11232000";
    object      Cw;
}
// * * * * * * * * * * * * * * * * * * * * * * * * * * * * * * * * * * * * * //

dimensions      [1 -3 0 0 0 0 0];

internalField   nonuniform List<scalar> 
11831
(
0
0
0
0
0
0
0
0
0
0
0
0
0
0
0
0
0
0
0
0
0
0
0
0
0
0
0
0
0
0
0
0
0
0
0
0
0
0
0
0
0
0
0
0
0
0
0
0
0
0
0
0
0
0
0
0
0
0
0
0
0
0
0
0
0
0
0
0
0
0
0
0
0
0
0
0
0
0
0
0
0
0
0
0
0
0
0
0
0
0
0
0
0
0
0
0
0
0
0
0
0
0
0
0
0
0
0
0
0
0
0
0
0
0
0
0
0
0
0
0
0
0
0
0
0
0
0
0
0
0
0
0
0
0
0
0
0
0
0
0
0
0
0
0
0
0
0
0
0
0
0
0
0
0
0
0
0
0
0
0
0
0
0
0
0
0
0
0
0
0
0
0
0
0
0
0
0
0
0
0
0
0
0
0
0
0
0
0
0
0
0
0
0
0
0
0
0
0
0
0
0
0
0
0
0
0
0
0
0
0
0
0
0
0
0
0
0
0
0
0
0
0
0
0
0
0
0
0
0
0
0
0
0
0
0
0
0
0
0
0
0
0
0
0
0
0
0
0
0
0
0
0
0
0
0
0
0
0
0
0
0
0
0
0
0
0
0
0
0
0
0
0
0
0
0
0
0
0
0
0
0
0
0
0
0
0
0
0
0
0
0
0
0
0
0
0
0
0
0
0
0
0
0
0
0
0
0
0
0
0
0
0
0
0
0
0
0
0
0
0
0
0
0
0
0
0
0
0
0
0
0
0
0
0
0
0
0
0
0
0
0
0
0
0
0
0
0
0
0
0
0
0
0
0
0
0
0
0
0
0
0
0
0
0
0
0
0
0
0
0
0
0
0
0
0
0
0
0
0
0
0
0
0
0
0
0
0
0
0
0
0
0
0
0
0
0
0
0
0
0
1.64845e-31
3.40288e-20
6.48483e-20
-1.08663e-28
1.53671e-24
-9.88255e-32
-2.51023e-18
-1.67693e-30
4.46932e-33
-2.89402e-28
-2.76194e-16
6.36097e-24
1.02519e-14
7.74895e-32
-8.86552e-30
1.12632e-29
5.74366e-28
6.96176e-28
-1.50947e-13
6.33616e-36
2.12639e-33
2.931e-30
1.85007e-11
-5.59559e-34
2.13196e-38
-2.92324e-28
-2.0029e-11
7.05912e-32
-1.06442e-30
3.45322e-38
2.07555e-35
8.21328e-11
3.77183e-29
-7.90119e-35
5.89011e-41
4.12565e-13
-5.36637e-31
4.97489e-41
-1.74011e-37
-4.66865e-10
1.25859e-29
5.06537e-38
6.74212e-43
6.25637e-11
1.34075e-31
-1.0046e-44
-3.13549e-39
-9.36613e-11
-3.81439e-32
7.8891e-20
1.44885e-28
-1.16203e-21
1.44906e-30
-1.49964e-40
-1.56095e-22
6.02347e-31
1.2396e-17
1.34727e-29
-7.48229e-26
-1.97006e-28
-3.32856e-30
1.56794e-45
1.59148e-27
1.16037e-14
1.37247e-09
-3.52958e-34
-9.42506e-17
1.36286e-31
7.11918e-32
3.25955e-43
-4.07886e-47
7.00005e-10
2.16303e-32
5.03414e-48
-6.66356e-42
1.94125e-09
-2.1061e-28
-3.517e-30
-1.252e-29
2.0852e-33
1.21402e-35
7.03733e-30
3.17803e-31
-1.32479e-29
-1.64089e-32
-1.44945e-12
-1.33389e-39
-1.04321e-36
1.22529e-12
5.98403e-11
-1.77409e-34
-9.07113e-11
-3.72114e-45
5.10127e-33
1.93112e-10
3.95189e-49
3.00627e-33
2.44815e-43
-5.22612e-50
7.04302e-10
2.3233e-42
8.46797e-32
2.3488e-29
6.08669e-37
6.28887e-32
2.96549e-46
-1.80263e-30
-7.54566e-40
4.55524e-30
-1.47338e-39
3.75417e-31
1.8572e-42
-1.7582e-32
-3.69254e-19
2.35419e-17
1.70928e-31
5.15806e-28
5.17745e-28
5.77963e-29
-4.46472e-19
-8.50876e-31
7.13011e-21
1.13818e-29
4.6145e-28
-1.91101e-28
9.59521e-21
-1.63641e-22
5.9641e-28
2.95318e-30
2.0027e-28
-1.05112e-29
3.96674e-39
2.82432e-32
-1.80978e-09
-2.58218e-15
4.06383e-30
1.18694e-23
3.49969e-30
5.21628e-14
-8.05147e-31
4.40622e-36
6.89137e-10
4.53284e-12
-5.55629e-44
-9.04298e-30
3.84233e-46
-1.81683e-41
-2.28979e-34
2.32159e-40
1.04645e-09
-5.17871e-10
-1.30819e-25
7.46112e-10
-8.09615e-28
-9.97916e-26
9.56955e-17
6.2506e-32
2.11802e-37
-2.16059e-14
9.8079e-13
6.17583e-35
8.63201e-17
-2.12061e-29
1.47607e-09
-5.41447e-46
7.28672e-34
2.65058e-11
-8.77627e-51
2.08356e-31
2.91841e-31
-8.4261e-31
-2.92429e-30
-9.10091e-30
-2.93672e-29
-2.75738e-29
-8.8852e-29
-8.24932e-30
2.51168e-29
5.73976e-28
2.09124e-27
3.70817e-27
1.12695e-26
7.535e-27
3.38646e-26
2.76384e-26
6.66179e-26
-7.58185e-26
-3.18553e-25
-9.68511e-25
-3.34322e-24
-3.50178e-24
-1.06362e-23
-5.31865e-24
-1.13337e-23
3.20149e-23
1.23377e-22
2.82403e-22
9.33698e-22
4.51625e-22
2.94718e-21
1.60034e-21
8.7925e-21
5.53559e-21
2.5503e-20
1.87249e-20
7.23139e-20
6.17201e-20
2.02255e-19
1.96672e-19
5.66134e-19
5.94651e-19
1.5754e-18
1.67349e-18
4.25295e-18
4.55194e-18
1.05496e-17
1.20369e-17
2.26851e-17
-1.21539e-17
-6.06974e-17
4.53381e-17
-2.3928e-16
8.10442e-17
-8.41101e-16
-1.97689e-15
-5.71475e-15
-2.7536e-15
-1.54573e-14
-1.47031e-14
-3.68185e-14
-3.94462e-14
-8.66413e-14
-1.19952e-14
3.84781e-14
4.01299e-13
1.24184e-12
2.88924e-13
3.64975e-12
1.22209e-12
1.03677e-11
1.39279e-11
3.35008e-11
2.84986e-11
7.83996e-11
6.02624e-11
1.10564e-10
1.79089e-10
1.82801e-10
-2.2538e-10
-8.57165e-10
2.37868e-10
-2.82961e-09
-6.03188e-09
-1.57227e-08
-1.97403e-08
-4.54024e-08
-3.94604e-08
-1.00524e-07
-8.07609e-08
-1.60443e-07
-2.14415e-07
-2.87837e-07
-4.42612e-07
-4.45842e-07
2.39601e-07
1.06442e-06
-5.87732e-07
3.55903e-06
8.13127e-06
2.04669e-05
1.04573e-05
4.94775e-05
6.6908e-05
0.000149068
0.000164651
0.000115283
0.000322295
0.000259299
0.000675949
0.000563618
0.00137407
0.00118493
0.00270569
0.00241075
0.00515928
0.00474828
7.73161e-21
0.00954699
0.00905201
0.0171465
0.0161627
0.0166924
0.00748296
0.0142542
0.00524123
0.0104607
0.0275591
0.0228504
0.0028972
0.0369976
0.0271186
0.0062432
0.000996004
0.0419148
0.0279767
0.00262814
-0.000175938
0.0414509
0.0246563
0.000247434
0.0345391
0.0180584
-0.000659841
-0.000860575
0.0237657
0.0107732
-0.000751197
-0.00117149
0.0131832
0.00505119
-0.000654478
0.00563564
0.00171445
-0.00108427
-0.000389006
0.00165254
0.000307547
-0.000722331
0.000169697
-7.67533e-05
-0.00015014
-0.00032899
-0.000154966
-0.000127934
-7.82545e-05
-7.46187e-05
-5.45826e-05
-3.19563e-05
-2.64874e-05
-1.02093e-05
-9.61329e-06
-2.32214e-06
-2.59068e-06
-2.45449e-07
-4.53575e-07
9.15861e-08
2.7078e-09
8.47403e-08
4.47298e-08
4.86256e-08
3.17619e-08
1.82113e-08
1.43862e-08
4.73318e-09
4.53348e-09
7.69399e-10
9.75956e-10
-5.10123e-12
-1.13001e-05
1.0586e-10
-6.70619e-05
-0.000655478
4.45884e-08
-1.55053e-10
-1.2779e-10
-0.000196059
-0.00120662
3.40154e-05
-2.1478e-10
-7.90596e-11
-0.000456013
-0.00207908
-0.000923896
-0.00335821
-8.63023e-11
-1.60079e-11
-0.00169686
-0.00504436
-9.38068e-12
1.6659e-12
-0.0028752
-0.0071201
-0.00453838
-0.00949663
4.58218e-12
2.77772e-12
-0.0010932
-0.00664854
-0.0117543
-0.00901147
-0.0135395
3.73349e-12
1.00599e-12
9.871e-13
1.60262e-13
2.23035e-13
-5.25907e-16
-0.0115553
-0.014594
6.15947e-14
2.54578e-14
-0.0137878
-0.0131122
-1.143e-14
-0.0153912
-0.00570691
-3.80467e-15
-0.0159851
0.00967238
-6.4459e-15
-0.0117117
-0.0140181
0.0356145
-0.000184862
-3.55778e-15
-0.00739484
0.0734379
0.239034
0.336792
0.72094
0.888151
1.53168
1.72804
2.5376
2.67257
3.42517
1.8677
2.72018
1.9398
2.60689e-05
2.41199e-05
1.47932e-05
7.77106e-06
3.80349e-06
6.55483e-07
6.59794e-08
-3.68932e-07
-2.65969e-07
-2.09656e-07
-1.19834e-07
-4.60155e-08
-1.90263e-08
1.94578e-09
2.69292e-09
3.54127e-09
2.15527e-09
1.16281e-09
5.47105e-10
7.14548e-11
1.02585e-12
2.16542e-09
-4.44154e-11
-2.90321e-11
-1.80017e-11
-9.39788e-12
-1.90186e-12
-5.04606e-13
2.68418
1.95294
-2.06061e-15
4.83121e-13
3.27213e-13
2.24047e-13
1.16098e-13
6.05546e-13
-1.72765e-15
2.53226
1.88834
1.00787e-09
2.70449e-14
8.3823e-15
-4.11019e-16
-2.56052e-16
2.00665e-17
8.20935e-17
2.30149
1.74873
-4.8457e-15
-3.34354e-15
-4.63356e-16
2.9299e-18
4.63076e-17
6.1797e-17
-2.32642e-15
-1.18758e-15
2.01831
2.41694
1.55425
-2.67934e-16
-8.15514e-17
1.36419e-17
9.09315e-18
-7.44489e-16
-1.3579e-19
-1.87761e-18
4.68729e-17
3.13364e-17
-1.37475e-17
1.89438e-17
1.01881e-17
4.94545e-18
1.0378e-17
2.14919e-18
3.44635e-20
-7.32525e-20
7.97363e-19
-6.47435e-20
-7.90895e-20
-3.79787e-20
-4.45291e-20
-1.79912e-20
-4.78459e-21
-1.51545e-21
-8.49926e-21
-4.14743e-22
3.43405e-22
1.71515
1.33079
-3.95928e-21
1.97307e-22
1.1261e-22
-1.11718e-18
-1.48314e-18
1.40506
1.09983
0.950094
0.795638
0.615542
0.525777
-3.26198e-19
-1.9634e-19
-5.99797e-19
0.361049
5.29148e-23
5.79198e-24
0.315899
7.02969e-21
4.64299e-20
0.880552
0.190585
2.47443e-20
2.90113e-20
8.31623e-20
2.47646e-20
1.08296e-19
2.64521e-21
1.20901e-24
-2.4016e-24
2.03515e-13
1.31319e-20
9.48313e-20
0.171891
-0.000256152
-0.000240828
1.7416e-10
8.97517e-10
1.97734e-10
7.08973e-10
1.89907e-10
4.92356e-10
1.57811e-10
3.04714e-10
1.16778e-10
1.61351e-10
7.59784e-11
7.16701e-11
4.40221e-11
2.73646e-11
2.16388e-11
3.25398e-12
9.01624e-12
-9.1693e-12
3.03951e-12
-1.38696e-11
-2.4405e-14
-1.41072e-11
-1.4652e-12
-1.19199e-11
-1.85435e-12
-8.9396e-12
-1.72712e-12
-6.10998e-12
-1.36725e-12
-3.84757e-12
-2.03558e-13
-9.7061e-13
-2.23941e-12
-6.30802e-13
-1.21088e-12
-3.80183e-13
-5.98367e-13
-2.1196e-13
-2.7393e-13
-1.1082e-13
-1.10313e-13
-5.22931e-14
-3.77806e-14
-2.6206e-14
1.62523e-14
2.46016e-13
1.84378e-13
2.45333e-14
1.23293e-13
5.76236e-13
3.33032e-13
7.6391e-14
1.84359e-13
6.89913e-13
3.54919e-13
9.82232e-14
1.77007e-13
-5.96084e-14
5.05414e-14
8.57356e-14
2.71722e-13
1.25097e-13
4.03936e-14
5.6176e-14
1.59527e-13
6.86573e-14
1.79784e-13
7.44941e-14
2.8903e-14
3.02633e-14
7.29257e-14
2.88139e-14
1.20723e-14
1.11711e-14
4.73537e-15
4.24702e-15
1.82564e-15
1.5846e-15
6.48224e-14
6.91209e-16
5.80512e-16
2.5675e-16
2.08884e-16
4.38072e-16
1.52909e-16
7.38583e-17
5.24904e-17
1.0074e-16
2.56742e-17
1.77281e-17
-1.22193e-11
8.77783e-18
5.89315e-18
-1.29757e-24
-6.24975e-25
-1.32376e-24
2.9529e-18
0.0896203
-5.61928e-26
-0.00039433
-0.000287719
2.94157e-22
5.72488e-20
0.0842005
-2.09892e-25
-0.000542499
-0.000314185
1.92884e-18
9.77803e-19
-1.07303e-26
2.77794e-26
2.66337e-26
2.83985e-16
0.036586
-0.000672684
-0.000313254
-9.56803e-21
1.34201e-20
1.44746e-26
6.58887e-27
-0.000762029
-0.000285141
6.21814e-19
3.18829e-19
4.66741e-19
0.0366825
0.0748106
2.31305e-10
-0.000791326
-0.000232535
-0.000748693
-0.000165311
-1.52089e-05
9.5733e-06
1.9713e-05
2.57534e-05
2.89404e-05
3.00737e-05
1.4211e-05
1.18306e-05
2.93728e-06
1.42651e-06
-2.79642e-07
-5.63888e-07
1.99446e-07
-4.23584e-07
-4.26032e-07
-1.57756e-07
-1.02216e-07
-1.14411e-08
4.59384e-09
8.68798e-09
9.86089e-09
4.51268e-09
3.09525e-09
9.08848e-09
5.35981e-10
1.67115e-09
6.85741e-09
-1.59122e-20
-2.27414e-20
0.0128505
1.53954e-19
0.0340995
0.0631939
-9.37736e-11
1.02405e-19
3.02941e-27
3.75247e-29
0.029872
0.0509533
5.00079e-20
2.10243e-19
5.44312e-10
4.15589e-09
-1.89814e-20
-4.40043e-21
-4.33127e-20
0.0248093
0.0393293
3.24108e-20
1.60022e-20
1.13877e-18
-0.00911458
4.69582e-11
2.7783e-19
5.64502e-12
-1.88772e-26
-1.88183e-29
-1.39287e-28
-2.97212e-28
-6.14248e-29
-0.00137261
-1.30867e-28
0.0196304
0.0291245
-1.51426e-10
1.86588e-09
-1.92221e-21
2.22528e-22
-6.45684e-08
1.01111e-20
5.04615e-21
-2.71222e-29
3.64764e-31
0.0109846
0.014851
0.0207324
-2.56688e-06
0.00612973
-4.19817e-10
3.80735e-10
-3.0469e-10
5.74618e-22
2.63545e-22
0.0107709
0.0142147
0.0249187
0.016294
0.0264362
0.00939811
3.11016e-21
1.56863e-21
2.37847e-21
4.1313e-31
1.1443e-30
7.47274e-22
1.20957e-09
-8.45665e-11
0.0103313
0.00600104
2.14006e-22
2.94392e-23
-4.2658e-10
-4.08395e-10
-0.000457185
2.23457e-20
4.80835e-22
1.06108e-21
2.3146e-22
4.98716e-31
1.87132e-31
8.35142e-12
0.0110482
0.00240956
0.000984711
-0.00067116
-0.00133571
-0.000902117
-0.00105846
-0.000478928
-0.000445148
-0.000133385
-8.88447e-05
-2.16633e-06
1.56828e-05
1.6501e-05
1.857e-05
-2.22466e-05
0.00635432
0.00371019
-2.17534e-24
-7.32534e-24
1.10273e-22
-3.81163e-10
-5.73792e-10
1.68566e-09
5.45771e-11
9.08047e-09
4.29626e-09
2.37292e-08
1.57893e-08
3.70367e-08
3.18825e-08
1.97999e-08
4.00618e-08
-1.63071e-07
-3.26367e-08
-6.79609e-07
-3.37816e-07
-1.53987e-06
-1.00303e-06
-2.20026e-06
-1.75008e-06
-2.32751e-06
-1.05875e-06
-1.97501e-06
-3.48494e-07
0.013226
0.0467134
8.17669e-06
7.22415e-06
1.12299e-10
-1.00499e-10
8.85786e-20
-4.37908e-20
8.79935e-19
3.98189e-19
3.69657e-18
2.89233e-18
8.28137e-18
1.05183e-17
8.2324e-23
1.45382e-22
7.06996e-23
6.33283e-32
2.21472e-31
-8.10452e-33
-1.12914e-32
-8.76892e-33
-1.91287e-32
1.82863e-06
9.29619e-07
7.36741e-06
1.58315e-06
-7.2916e-11
1.23589e-09
-2.00946e-23
1.16204e-23
-1.2173e-06
0.00378472
0.0022263
0.00203292
-2.32319e-33
-1.81328e-07
-4.00631e-07
0.00122774
-3.97531e-33
2.84523e-05
1.35294e-05
4.337e-23
2.13026e-23
-3.50314e-07
-6.62172e-33
0.0010382
1.35651e-07
-2.43999e-07
-2.37238e-07
-5.09729e-07
-2.10759e-07
-5.04037e-07
-1.59283e-07
-2.80838e-08
-4.83371e-09
-1.00333e-07
1.06678e-08
-4.72633e-08
1.82207e-08
-6.26455e-09
1.93543e-08
1.82997e-08
1.74164e-08
7.25609e-09
4.74726e-09
1.47453e-08
2.5605e-09
-1.09491e-10
-4.36141e-10
9.62443e-10
-4.91975e-10
-2.7156e-10
-2.05675e-10
-5.05181e-11
-2.03684e-11
-2.5641e-11
6.78201e-12
7.80503e-12
4.25974e-12
3.12155e-12
6.85376e-12
2.0121e-12
2.48582e-13
-5.866e-15
5.4541e-12
9.6034e-09
-1.13687e-13
-9.32717e-14
5.18603e-12
0.00129738
0.000718798
-2.86094e-23
-5.0998e-23
6.13904e-05
3.64798e-05
9.08714e-05
3.27666e-34
1.27686e-23
2.43164e-23
6.33351e-24
9.90979e-24
2.97558e-24
-3.87085e-14
-2.28629e-14
-5.47249e-11
-5.4522e-11
0.000733171
0.000408868
-2.63713e-23
-7.19956e-23
4.67188e-34
4.37523e-24
-1.40804e-15
1.07314e-15
-1.05139e-14
1.70309e-15
-3.54208e-15
1.54015e-15
7.75402e-16
4.78677e-16
-3.06517e-17
3.32009
3.94713
3.88447
4.15513
4.11637
4.07233
4.06031
3.69383
3.74641
3.02144
3.14162
2.20251
5.80831e-21
-1.07533e-15
-4.0211e-16
-0.00640566
8.85476e-05
6.16842e-05
1.90088e-05
3.9415e-05
8.58747e-06
2.22769e-05
5.50506e-05
3.57106e-05
1.09455e-05
2.16431e-05
3.98976e-05
2.91436e-05
-1.20753e-06
1.89724e-05
1.27884e-27
2.78475
-0.000118538
-3.5961e-05
6.69516e-17
8.77724e-18
-5.19795e-16
-2.81623e-16
3.71091e-24
-2.15075e-17
-1.66015e-17
-6.50294e-15
2.91173e-34
1.32701e-24
-1.67029e-16
-1.45926e-16
2.35102
1.41654
-1.69877e-11
-2.40796e-11
-0.000318158
-0.000142073
1.77762e-05
0.000401579
0.000226171
-2.28852e-24
-3.35824e-24
-2.53755e-24
-8.28476e-25
-1.09824e-24
-9.72856e-26
-2.48017e-25
1.37979e-26
-2.39464e-26
1.09279e-26
5.46628e-27
4.23165e-27
3.51487e-27
8.30336e-28
1.22157e-27
5.90067e-29
1.32631e-26
2.07142e-28
1.03279e-27
3.01859e-28
5.69248e-28
-2.13131e-29
-4.05122e-29
2.86098e-28
-6.35482e-29
-1.34475e-29
-8.49579e-30
1.62875e-28
-8.59848e-28
-4.83058e-31
8.11574e-31
1.64582e-30
-1.49218e-27
4.32103e-31
-4.36541e-11
-2.62394e-11
-2.28829e-11
4.4751e-31
-1.36572e-23
-6.66664e-23
6.23432e-34
9.347e-17
-5.97212e-17
-6.69815e-17
-3.898e-17
-1.74068e-17
-1.39642e-17
-2.80066e-18
-3.09805e-18
-1.37413e-19
-4.09885e-19
9.26852e-20
5.42927e-21
5.63331e-20
2.41317e-20
-5.14076e-20
1.85688e-20
6.40034e-21
-7.93191e-20
-4.99743e-21
-8.13491e-20
-1.11141e-20
-6.52603e-20
-1.24559e-20
-4.2403e-20
-1.07716e-20
-2.14328e-20
-1.86741e-22
-7.39844e-21
-7.98715e-21
-4.13888e-21
-1.88302e-21
-1.67249e-21
1.22318e-21
-3.42059e-20
-5.24305e-22
2.53797e-21
2.03046e-20
1.51858e-20
2.6469e-21
9.56492e-21
-1.21004e-21
-5.23837e-18
2.93345e-20
1.04982e-20
5.12201e-21
3.01445e-21
2.11761e-21
-2.00672e-22
6.79332e-22
-1.47862e-21
-2.15252e-11
1.42e-11
9.73673e-21
1.83656e-24
1.21683e-22
-1.64062e-21
-1.11619e-20
-7.20671e-21
6.71433e-32
-1.34137e-21
-4.13213e-21
-1.3294e-20
-4.88805e-21
-6.66762e-18
-3.68818e-18
-1.16915e-17
-1.58448e-18
-7.35991e-18
-5.07635e-19
2.27842e-19
1.88767e-19
9.0267e-20
5.1056e-20
1.34525e-19
2.62168e-20
-3.2112e-22
-1.67522e-21
1.03185e-20
-1.55353e-21
-9.66537e-22
-5.41752e-22
-1.15786e-21
-2.88937e-22
-1.94585e-23
4.39798e-24
-1.42509e-22
8.5723e-24
8.18524e-24
4.60482e-24
-2.00582e-28
-1.57823e-27
-1.99624e-21
-1.44453e-21
8.26403e-22
3.0031e-21
2.95296e-20
2.09756e-20
3.05764e-21
1.30281e-20
5.66951e-20
2.73531e-20
7.26803e-21
1.15601e-20
2.46404e-20
6.55785e-21
4.2487e-21
6.69273e-22
1.24298e-21
-1.0581e-21
-1.35904e-20
-9.32412e-21
-1.18569e-21
-5.67135e-21
-2.85326e-20
-1.44265e-20
-5.51759e-20
-2.39266e-20
-6.86727e-21
-9.33776e-21
-3.02903e-21
-3.38816e-21
5.59707e-34
2.44584e-31
-9.06139e-12
3.1247e-14
1.49745e-12
1.07768e-12
9.98904e-13
2.82088e-13
1.20694e-13
-1.40947e-14
-3.20929e-14
-1.89158e-14
-1.47921e-14
-3.089e-15
-6.53135e-16
4.74249e-16
5.43919e-16
6.49355e-16
4.68887e-16
9.02647e-16
1.31335e-16
2.92409e-16
8.67926e-16
-5.41145e-23
-1.68292e-07
2.98168e-05
3.72063e-22
-3.57248e-28
-9.2404e-28
5.62797e-25
1.32361e-33
4.00992e-34
4.34387e-29
0.000213266
0.000344407
0.000121524
0.000119026
6.42974e-05
6.87543e-33
2.38565e-31
-8.93081e-33
1.21986e-16
5.89604e-16
-2.77286e-24
-3.61859e-23
1.54056e-24
5.83303e-35
1.78622e-35
-1.08151e-17
1.09371e-24
3.48538e-25
-1.24758e-21
-1.03202e-21
-0.00054653
-0.000283939
-6.52932e-20
-0.00064341
1.5579
2.40586
0.793247
2.23115e-20
3.16648e-21
1.22574e-21
-5.25665e-22
-1.3848e-21
-5.69994e-22
-6.81684e-22
-1.07543e-22
-1.26825e-22
-5.0019e-24
-1.69123e-23
3.27446e-24
-7.56659e-26
1.82541e-24
7.65312e-25
5.43569e-25
-3.8285e-28
0.00566443
-7.34573e-36
-4.01656e-36
-4.8557e-23
1.64088
2.37745
-1.47237e-11
6.16852e-11
-4.60874e-22
-2.61928e-22
2.99367e-23
2.67449e-22
7.34026e-25
-1.13617e-25
-8.20576e-26
-4.61999e-23
2.22682e-22
1.54074e-21
8.1921e-22
1.39642e-22
4.09783e-22
5.90249e-05
3.67851e-25
2.71838e-33
-1.90638e-33
-9.39011e-28
0.00592663
-5.06292e-08
2.63425e-08
-2.64871e-10
0.000394107
0.001397
1.70091e-06
4.73902e-18
4.19129e-05
7.51109e-26
1.06575e-09
-5.50115e-05
-0.000134046
-1.68158e-05
-5.76177e-05
-1.22446e-24
-1.70802e-19
0.662613
3.97077e-25
1.70105e-25
1.17252e-25
-2.73415e-25
2.9448e-22
9.81975e-23
2.10318e-22
7.72454e-23
-4.99257e-23
1.66207e-24
-3.6846e-22
-9.68664e-23
-6.10598e-22
-1.77418e-22
-5.67307e-22
-1.73584e-21
-9.01389e-22
-1.94628e-21
2.326e-21
1.03446e-20
4.35322e-22
6.37621e-21
1.71351e-21
8.40848e-21
2.43809e-21
7.32689e-21
2.31792e-21
4.37216e-21
1.23599e-20
1.4548e-21
-1.0302e-21
-1.23458e-20
6.95049e-22
-4.49833e-20
-1.70498e-19
-2.15407e-19
-7.36153e-19
4.50974e-24
-6.17561e-20
-0.0143759
6.44465e-08
-0.0051272
1.65773
2.26565
1.61777
2.07676
1.51794
1.83397
-1.17001e-19
0.000175144
0.00025378
-2.28647e-06
-2.18024e-05
-1.31387e-32
-3.34772e-33
3.09099e-24
-9.61987e-24
-1.53765e-22
-8.98636e-23
1.35168e-17
2.6124e-16
-2.09477e-17
-4.056e-33
-1.74463e-36
-8.40709e-37
3.20346e-05
3.38336e-05
5.03064e-33
9.55565e-26
-3.93548e-26
-3.61312e-22
5.07255e-26
3.41761e-26
-0.00069567
-2.03497e-19
-6.07494e-20
1.37036
-0.000105971
-4.8327e-05
-1.3359e-17
-3.9189e-17
-1.22202e-25
7.70803e-23
1.95496e-22
0.299046
0.221951
2.46712e-11
4.08476e-21
-3.39841e-22
-3.44209e-22
-2.02145e-26
1.55926
-0.0118752
-0.0108681
0.000123091
0.000155682
4.16173e-24
3.93477e-23
8.96694e-23
1.49279e-26
9.83526e-27
-5.75216e-39
1.81579e-40
0.0693902
0.0393214
-0.000108665
-3.32343e-12
1.08837e-10
-4.01902e-19
1.69034e-05
-4.37101e-34
9.57855e-26
1.59227e-25
2.74373e-05
-1.23627e-27
2.05771e-06
-1.93109e-17
-8.03014e-18
6.45269e-35
1.73289e-05
-1.08783e-11
-0.00101914
-0.00804929
-0.0108211
6.12517e-17
-8.35907e-20
1.89901e-23
3.97492e-23
-1.02623e-33
-0.00013864
-7.11426e-05
-1.40106e-19
-4.5035e-20
-6.04651e-27
1.19028
-0.0110953
-0.0118262
-0.00777451
-0.00187593
1.67896e-22
7.02374e-23
8.49478e-27
-3.4522e-27
1.16739e-23
6.94575e-26
4.44322e-26
8.68652e-06
8.90324e-35
2.09127e-26
2.4993e-38
1.15067e-38
-4.15835e-41
5.27836e-39
-4.37142e-40
-4.75452e-38
2.93378e-24
1.89397e-28
7.91917e-28
1.28031
-7.19152e-11
-2.06461e-11
1.70892e-15
2.41129e-39
-4.87082e-40
7.56921e-40
1.70899e-23
2.86544e-23
4.3365e-27
2.79514e-27
5.97877e-27
-2.0458e-16
-2.12177e-16
-1.72905e-14
-2.67648e-22
-7.0683e-22
-2.15378e-22
-7.277e-22
1.82562e-08
-6.25153e-19
-2.46369e-18
-2.22696e-18
-8.07393e-18
-7.71505e-18
-2.59441e-17
-2.59803e-17
-8.16235e-17
-8.49626e-17
-2.48208e-16
-2.71927e-16
-7.24567e-16
-8.54455e-16
-2.06131e-15
-2.62351e-15
-5.70381e-15
-7.86287e-15
-1.53898e-14
-2.28356e-14
-4.08276e-14
-6.363e-14
-1.05207e-13
-2.3019e-14
-2.26239e-14
-2.55771e-13
9.67634e-14
6.08891e-13
2.09692e-12
7.29121e-13
6.89047e-12
9.01078e-12
2.70205e-11
2.18466e-11
7.91662e-11
7.92442e-11
2.22418e-10
1.93544e-10
5.20623e-10
6.11178e-10
1.37219e-09
1.0319e-09
2.61853e-09
3.54417e-09
6.50768e-09
4.30763e-09
1.03031e-08
1.58315e-08
2.41057e-08
3.76814e-08
5.51363e-08
3.18335e-08
6.99298e-08
1.23218e-07
1.49951e-07
2.68943e-07
3.14041e-07
3.66276e-08
-2.37155e-14
-4.40871e-16
5.73063e-07
6.4312e-07
-2.28561e-16
3.25418e-07
6.43889e-07
1.28948e-06
1.24084e-06
5.61938e-07
1.03248e-06
2.32916e-06
1.84223e-06
4.25131e-06
3.18848e-06
7.53787e-06
5.34647e-06
1.2969e-05
8.67357e-06
2.16256e-05
1.35931e-05
-1.91757e-17
3.49085e-05
4.43268e-07
2.05424e-05
3.15024e-06
4.20108e-07
9.00012e-06
5.44735e-05
2.98736e-05
9.65127e-06
-0.00071195
7.12756e-05
7.18436e-05
1.11978e-34
8.64669e-06
-3.2491e-18
-5.45289e-20
7.14543e-24
-7.7719e-23
1.2438e-27
4.35828e-06
2.52169e-35
3.31625e-26
-3.09457e-26
-4.10525e-27
1.22601e-27
1.21427e-11
1.45771e-10
4.28613e-10
3.37796e-10
4.25914e-10
-5.87009e-19
-9.20534e-27
0.00961839
1.50348
1.40897e-20
1.02605
-0.0105789
-0.0128
1.42179e-15
-0.0113421
-0.00650104
2.72307e-22
2.33617e-24
8.80026e-25
2.30253e-27
2.40283e-26
4.89382e-28
4.57141e-28
1.4068e-28
-0.000136057
-8.10949e-05
-3.40042e-05
-4.25131e-05
-1.49476e-05
-2.03799e-05
-7.19372e-20
-2.42266e-20
1.18323
0.99644
-3.48676e-25
0.0722965
5.05061e-06
2.81034e-06
1.97967e-06
3.42981e-11
-1.41247e-20
-7.9259e-21
-4.30816e-21
-2.55869e-21
-1.27305e-21
-8.11374e-22
-3.67969e-22
-2.51514e-22
-1.03921e-22
-7.61597e-23
-2.87449e-23
-2.25454e-23
-7.8344e-24
-6.43874e-24
-7.38437e-24
-2.09293e-24
-1.79408e-24
-3.79482e-24
-1.13698e-24
-1.11866e-21
-5.47595e-25
-1.66496e-24
-5.35157e-25
-1.27486e-12
2.54905
-8.92196e-19
-2.49793e-18
3.0245e-19
1.51689e-19
1.89297e-19
1.46812e-05
-3.59617e-05
-0.00046001
0.0579896
-9.24488e-29
0.39404
1.18159e-17
1.99591e-11
-2.24951e-09
1.28096e-05
3.33627e-06
4.16978e-05
1.66348e-27
3.34945e-27
-4.02295e-16
-1.57566e-16
-5.86046e-16
9.50339e-19
7.68019e-19
-4.87192e-22
1.1006e-39
-3.99374e-40
4.10145e-06
2.56331e-19
-2.264e-27
1.08724e-26
-7.33127e-26
-2.06936e-27
3.97203
2.39649e-13
8.82594e-12
9.31073e-12
-0.00722729
-0.0028739
-0.00207011
-3.56486e-05
-0.00910544
-0.0122817
4.88076e-18
2.74289e-18
3.38653e-21
8.55064e-07
2.85635e-07
-5.94198e-06
-9.35397e-06
4.2065e-06
2.13432e-06
3.02917e-05
7.37814e-36
7.07727e-35
-1.2874e-36
3.7424e-24
-1.84388e-22
3.85941e-19
-6.14902e-19
-1.52561e-28
-2.2515e-27
-8.08848e-26
1.62212e-08
4.06702
-0.00172176
-3.59255e-25
-3.66492e-19
5.8631e-20
-1.74752e-27
5.68886e-29
-7.53531e-30
-0.000480384
-0.000166508
1.26318
0.945751
-1.73055e-21
-3.49511e-09
-1.35643e-08
4.90451e-05
3.8081e-06
6.05032e-07
1.14519e-15
2.72803e-24
9.68377e-25
5.02957e-40
-2.58744e-40
-1.87476e-38
-8.64923e-39
-3.81514e-38
-1.68679e-38
4.80442e-38
2.51292e-38
6.88377e-37
3.09456e-37
1.20454e-36
5.22824e-37
-1.79405e-36
-8.83088e-37
-1.94175e-35
-8.52737e-36
-3.10569e-35
-1.32663e-35
4.56076e-35
2.13075e-35
4.36646e-34
1.86597e-34
6.57867e-34
1.57103e-33
-1.92934e-33
-8.77292e-34
-1.90722e-32
-7.92463e-33
-2.80251e-32
-6.86832e-32
6.65563e-32
2.81598e-32
6.9593e-31
1.73705e-30
2.56231e-30
9.96564e-31
-9.14412e-31
-9.02342e-32
-1.57158e-29
-4.80029e-29
-7.77369e-29
-3.1436e-29
-6.00287e-29
-9.77274e-29
7.4163e-28
2.41978e-28
2.86124e-27
6.80873e-27
8.87853e-27
4.21402e-27
-1.07381e-26
-3.30176e-26
-3.44631e-27
-2.20011e-25
-5.38064e-25
-8.11196e-25
-1.89898e-24
8.9521e-25
3.56868e-24
3.13918e-23
8.17867e-23
1.07118e-23
1.17569e-22
2.99354e-22
4.42456e-23
-1.21369e-22
-3.00901e-21
-9.02061e-21
-1.48153e-20
-3.6668e-20
-6.06815e-21
-2.53243e-20
-9.15999e-20
-3.45963e-20
-2.61857e-20
1.20878e-23
-2.16008e-19
1.40926e-19
2.0917e-18
6.01816e-18
8.34938e-19
1.60628e-17
2.31643e-17
5.47252e-17
3.82082e-17
1.1877e-16
1.10429e-17
-1.01267e-16
2.2392e-16
-5.21772e-16
-3.03071e-15
-7.82678e-15
-1.81878e-15
-1.80168e-14
-2.49041e-14
-5.09565e-14
-8.65699e-15
3.63068e-14
-5.6049e-15
4.08946e-13
1.09731e-12
1.43542e-13
2.04081e-13
2.77354e-12
4.11371e-12
8.66773e-12
5.52487e-12
6.85366e-12
6.42015e-12
-3.56436e-11
-1.01998e-10
-2.61249e-10
-5.63882e-10
-2.71204e-10
-1.16134e-09
-1.26588e-09
-2.098e-09
-2.31956e-09
-3.2511e-09
3.59705e-09
1.32124e-08
4.48172e-08
1.04105e-07
-1.10266e-10
-4.50608e-09
1.52241e-07
2.90036e-07
2.29646e-07
7.66922e-08
2.55239e-07
3.83596e-07
2.73879e-36
1.34272e-28
2.94e-11
5.42782e-12
3.27162e-12
7.90478e-12
1.43087e-12
5.1254e-12
3.53772e-13
2.51899e-12
-1.03316e-13
9.31609e-13
-1.62226e-13
-1.77211e-13
1.08755e-13
-1.39101e-13
-1.52308e-13
1.6605e-12
4.66535e-13
5.08305e-12
2.53809e-12
8.52239e-12
5.76388e-12
4.05908e-12
7.52113e-12
-4.28462e-11
-6.92806e-12
-1.59835e-10
-6.61958e-11
-3.02638e-10
-1.74962e-10
-3.23909e-10
-2.65101e-10
5.9298e-10
-7.5029e-11
4.97615e-19
2.68196e-26
8.35697e-26
-3.47182e-26
-7.03698e-26
-1.64179e-25
-3.81492e-26
8.40002e-25
-4.91003e-26
-1.68086e-26
3.36595e-26
5.29903e-27
-1.00253e-20
-1.4094e-21
1.54531e-18
9.0948e-18
2.3441e-15
0.814453
0.697466
9.12848e-28
1.72552e-27
1.29156e-17
6.4887e-18
2.65582e-05
0.000165075
-1.50276e-16
-2.21042e-18
-3.93986e-19
2.92991e-19
-1.50287e-18
-3.67161e-21
-0.010686
6.94834e-13
-2.19134e-18
-7.12782e-18
-1.32537e-21
-9.11632e-22
1.02265e-28
1.97853e-28
6.53791e-27
2.24016e-19
-3.43891e-18
-2.75176e-14
-2.11347e-06
-3.93058e-06
-8.47131e-11
-4.08431e-36
1.82811e-35
2.57834e-23
1.36477e-23
3.40811e-19
3.97193e-19
1.51363e-19
-9.54604e-27
-6.60292e-26
-8.6261e-37
5.26871e-08
-7.04022e-08
5.63228e-12
1.02254e-05
1.23299e-05
2.00109e-06
1.02247e-06
-5.99813e-30
-3.39526e-30
-6.37461e-30
3.28014e-09
1.15686e-09
-2.41548e-25
-9.34139e-26
-4.16527e-26
-2.32661e-26
-8.25862e-10
-1.50271e-18
4.22328e-20
-4.6016e-21
6.34394e-26
1.47135e-26
4.24595e-28
3.28777e-27
1.66109e-26
4.01513e-27
-0.00364026
6.4406e-13
1.75658e-12
-1.32219e-08
-2.46742e-08
-4.3099e-09
-7.2831e-35
3.50157e-07
-0.00713761
-0.0109959
-0.00338567
-0.0120905
-0.012658
0.00548984
-0.00502071
0.0612102
0.0280616
0.1858
0.108801
0.00845139
0.0577265
-1.11268e-17
-1.91327e-17
-2.34579e-07
-1.02072e-06
-5.6565e-36
1.27023e-38
-1.23938e-19
-5.72879e-18
3.55614e-24
1.5047e-23
0.000122291
0.000155273
3.96661e-26
-4.31762e-26
1.35296e-25
-1.11805e-24
-4.05704e-25
1.18171e-19
4.80039e-19
-5.14784e-25
-0.000197121
-1.98107e-07
-2.97685e-08
9.10074e-34
1.90686e-33
-2.00474e-35
3.95313e-35
-6.69448e-35
-1.19782e-34
0.923271
0.652306
0.684921
0.017059
2.67414e-20
-2.79008e-21
-3.8223e-21
0.00126415
2.63175e-19
5.49359e-18
1.84991e-22
-2.93856e-14
-1.50953e-14
-7.5238e-14
-5.17742e-14
-9.80658e-14
-8.81622e-14
2.3709e-13
2.97941e-14
1.64952e-12
-6.66414e-14
-4.86002e-14
-4.67444e-14
-5.63246e-14
-2.91686e-14
-4.6632e-14
1.24985e-13
-1.68664e-14
-2.94958e-10
4.86137e-05
2.10147e-05
3.56089e-05
1.42849e-05
2.29657e-05
8.49695e-06
1.27877e-05
4.29445e-06
5.87569e-06
5.37845e-06
1.70237e-06
1.86161e-06
7.38833e-06
1.58408e-06
8.05658e-06
8.11003e-07
7.13788e-06
-7.24955e-07
-1.08914e-06
-2.03537e-06
-3.37805e-06
-3.20462e-06
-6.70898e-06
-4.5226e-06
-1.60716e-06
-1.70973e-06
-5.6939e-06
-1.52311e-06
-2.32493e-07
6.13874e-09
1.28982e-07
2.28902e-07
9.947e-08
1.19455e-07
-6.16203e-06
3.15851e-07
1.16751e-07
2.47873e-08
1.18402e-08
7.19799e-08
-3.45221e-09
-8.83689e-09
3.85492e-07
0.496792
0.436535
-3.79296e-12
1.05241e-12
4.6078e-28
2.45898e-28
2.92372e-24
9.87793e-25
3.29845e-25
3.20103e-25
1.08131e-25
9.92571e-26
-1.58769e-40
3.39616e-26
-4.18201e-09
-4.80244e-09
-1.24493e-08
-4.5826e-09
-1.96243e-35
3.30881e-07
-9.30461e-10
-3.79693e-10
4.22575e-29
3.01119e-29
-5.94774e-31
-4.14629e-37
-2.07212e-21
-1.36694e-21
-1.77405e-26
1.3952e-26
-6.36502e-07
-1.5095e-06
7.57014e-08
-3.30016e-14
-9.21666e-15
-1.02797e-15
-1.44491e-17
5.09586e-16
3.46186e-16
-1.23096e-32
-1.50294e-31
-6.98176e-24
-5.72993e-24
7.39947e-09
3.71584e-09
2.36598e-10
1.5219e-09
6.43112e-09
3.46222e-09
6.31242e-09
-1.85515e-11
0.0444005
1.54111e-16
7.9833e-17
1.63621e-19
1.42661e-20
-0.00186473
0.0265464
-3.557e-09
2.16573e-10
3.0997e-10
3.85519e-10
7.17837e-10
3.92312e-10
1.08766e-10
6.82408e-11
3.50544e-10
2.20051e-11
-1.36197e-11
-2.1373e-11
-1.84999e-11
-2.20703e-11
-7.27822e-12
-5.15994e-12
-2.04201e-11
-2.57015e-12
-1.6633e-11
-2.66127e-13
-1.03131e-11
1.29276e-12
9.46718e-13
8.74346e-13
2.62398e-13
1.44401e-13
-4.33129e-12
-6.50344e-15
-2.70402e-14
4.53843e-14
-3.16921e-14
-1.24738e-14
-9.48783e-15
-2.86538e-14
-5.49074e-15
5.03971e-18
-0.00210631
-0.000503055
2.64825e-17
1.24074e-17
-3.9036e-17
-4.70287e-17
2.92493e-14
-4.81539e-08
-3.66993e-08
4.82163e-10
2.21556e-19
4.23912e-19
-6.65286e-36
-1.16852e-35
3.70942e-06
4.7911e-06
9.33105e-07
4.80968e-07
4.81907e-07
2.27052e-07
7.95092e-24
1.12765e-24
2.94488e-26
8.33891e-26
-2.14711e-22
-4.80219e-23
4.0536e-07
-2.81353e-21
-5.30507e-27
3.01923e-26
2.42219e-25
1.80287e-25
1.49242e-26
8.14323e-28
2.08884e-06
-3.17859e-31
-5.44436e-31
-2.38617e-14
1.59492e-09
1.18549e-27
1.26798e-08
1.65477e-06
6.38741e-27
-5.33606e-08
-1.5559e-08
2.51002e-19
-3.97675e-22
-0.00632213
0.00912698
0.0874196
0.0450494
0.00046194
0.0205335
6.03157e-19
1.42957e-19
1.27142
2.13083e-18
7.42634e-19
7.25241e-18
3.16701e-18
2.39498e-17
1.22937e-17
7.71102e-17
4.5062e-17
2.76598e-12
5.37502e-12
6.8331e-12
-2.55378e-12
-1.81987e-11
-1.19651e-10
-6.14261e-11
-2.84871e-10
-3.88117e-10
-3.59897e-10
-6.82825e-11
3.20143e-09
6.51184e-09
1.73631e-08
2.46179e-08
3.10341e-08
2.82255e-08
-9.7957e-08
-2.35322e-07
1.12353e-08
-1.86607e-10
-8.34297e-07
-1.24026e-06
-5.00956e-07
-4.57242e-07
-1.71443e-06
-2.40382e-06
-2.49037e-06
-2.12727e-06
2.41355e-16
1.56139e-16
7.30972e-16
5.17077e-16
2.13905e-15
1.65041e-15
5.96881e-15
-2.1133e-21
-3.08708e-09
3.97982e-29
-1.6356e-30
-8.23951e-19
-3.31071e-37
-1.62079e-37
3.21187e-26
1.05888e-25
2.5235e-25
7.00392e-26
4.05634e-31
-5.59748e-30
-4.12349e-35
4.55919e-26
-1.18199e-26
-4.39374e-25
-4.447e-25
-4.74234e-26
-3.31848e-25
2.82171e-06
9.26131e-06
1.70448e-23
6.58859e-23
-1.51472e-24
-8.03061e-31
4.79183e-30
-1.28296e-28
6.25476e-19
2.23937e-18
0.443913
0.479051
-2.51302e-12
-1.08506e-27
-7.12615e-26
0.39953
0.107824
0.0583187
-1.77847e-07
-8.1457e-08
3.39188e-18
-2.82886e-18
0.363317
8.46251e-23
-1.56115e-08
-1.65008e-11
-2.79316e-08
-1.05226e-13
2.03226e-13
7.78388e-10
5.119e-15
1.61606e-14
-4.83097e-07
-1.85674e-07
2.7798e-36
0.268462
0.243022
0.368965
5.47859e-17
-1.16562e-16
-1.043e-16
2.13052e-28
3.49716e-28
-2.16406e-15