/*--------------------------------*- C++ -*----------------------------------*\
  =========                 |
  \\      /  F ield         | OpenFOAM: The Open Source CFD Toolbox
   \\    /   O peration     | Website:  https://openfoam.org
    \\  /    A nd           | Version:  6
     \\/     M anipulation  |
\*---------------------------------------------------------------------------*/
FoamFile
{
    version     2.0;
    format      ascii;
    class       volScalarField;
    location    "7776000";
    object      Cw;
}
// * * * * * * * * * * * * * * * * * * * * * * * * * * * * * * * * * * * * * //

dimensions      [1 -3 0 0 0 0 0];

internalField   nonuniform List<scalar> 
11831
(
0
0
0
0
0
0
0
0
0
0
0
0
0
0
0
0
0
0
0
0
0
0
0
0
0
0
0
0
0
0
0
0
0
0
0
0
0
0
0
0
0
0
0
0
0
0
0
0
0
0
0
0
0
0
0
0
0
0
0
0
0
0
0
0
0
0
0
0
0
0
0
0
0
0
0
0
0
0
0
0
0
0
0
0
0
0
0
0
0
0
0
0
0
0
0
0
0
0
0
0
0
0
0
0
0
0
0
0
0
0
0
0
0
0
0
0
0
0
0
0
0
0
0
0
0
0
0
0
0
0
0
0
0
0
0
0
0
0
0
0
0
0
0
0
0
0
0
0
0
0
0
0
0
0
0
0
0
0
0
0
0
0
0
0
0
0
0
0
0
0
0
0
0
0
0
0
0
0
0
0
0
0
0
0
0
0
0
0
0
0
0
0
0
0
0
0
0
0
0
0
0
0
0
0
0
0
0
0
0
0
0
0
0
0
0
0
0
0
0
0
0
0
0
0
0
0
0
0
0
0
0
0
0
0
0
0
0
0
0
0
0
0
0
0
0
0
0
0
0
0
0
0
0
0
0
0
0
0
0
0
0
0
0
0
0
0
0
0
0
0
0
0
0
0
0
0
0
0
0
0
0
0
0
0
0
0
0
0
0
0
0
0
0
0
0
0
0
0
0
0
0
0
0
0
0
0
0
0
0
0
0
0
0
0
0
0
0
0
0
0
0
0
0
0
0
0
0
0
0
0
0
0
0
0
0
0
0
0
0
0
0
0
0
0
0
0
0
0
0
0
0
0
0
0
0
0
0
0
0
0
0
0
0
0
0
0
0
0
0
0
0
0
0
0
0
0
0
0
0
0
0
0
0
0
0
0
0
0
0
0
0
0
0
0
0
0
0
0
0
0
-2.68514e-42
-2.15489e-22
-1.61613e-21
-2.87519e-39
6.46276e-28
-3.10466e-41
-3.03126e-17
-5.38437e-40
2.6362e-43
-2.60703e-39
-6.5977e-18
-1.82829e-26
-3.50775e-14
-6.53241e-42
7.94303e-34
5.56468e-43
-2.09968e-31
2.45215e-40
1.25816e-13
4.11735e-45
9.45529e-43
4.9256e-42
-2.62705e-11
1.1372e-39
-1.2344e-47
-2.96207e-41
9.10454e-11
6.41904e-37
-4.99733e-43
5.30049e-45
4.31708e-44
-1.91499e-09
4.04919e-42
2.81215e-40
-3.00111e-50
2.19189e-09
9.67761e-45
-1.68082e-48
-2.66065e-47
2.06457e-08
3.03373e-43
-7.29586e-44
-9.31513e-53
-2.42173e-08
2.97057e-45
2.80901e-53
-1.22376e-47
-5.90925e-08
5.18305e-43
7.0378e-20
3.32185e-39
1.25386e-23
1.43357e-44
4.21923e-47
-5.45166e-26
2.47429e-41
-3.02867e-19
1.72494e-39
7.53052e-29
9.30394e-40
2.06355e-41
2.19657e-54
-4.76473e-31
-2.4165e-15
5.50672e-08
-4.20621e-44
1.15129e-15
1.71156e-40
2.99277e-46
-1.08677e-50
3.06815e-57
4.33918e-08
1.41393e-46
-1.03493e-56
-1.99657e-49
3.5873e-08
-1.8525e-40
2.94064e-34
1.08791e-41
-4.3392e-38
-1.02567e-41
8.37262e-43
-3.023e-36
-1.62726e-41
-5.8292e-42
1.2046e-12
9.15572e-49
-3.06198e-46
-4.14939e-12
-5.57926e-10
-1.42425e-43
3.22514e-10
-2.77904e-52
1.25645e-47
1.01031e-08
-8.28136e-59
9.28761e-48
2.37839e-51
3.25353e-59
2.69775e-08
-4.27588e-51
1.33177e-44
9.44695e-43
3.22524e-43
7.24327e-46
-1.14063e-54
-8.46272e-44
-2.07702e-47
6.76376e-44
-1.3665e-45
2.44556e-45
1.98545e-48
-1.5809e-42
-1.52075e-21
1.88529e-20
5.55861e-42
-5.72806e-31
1.12133e-39
-4.05809e-40
3.19108e-21
-1.67383e-41
1.72801e-23
3.95098e-41
6.33657e-33
1.29747e-40
-3.84689e-23
3.90086e-25
9.50127e-40
-4.52548e-33
-1.54624e-40
-4.74208e-43
-3.89578e-47
9.13585e-40
-2.44601e-08
4.60983e-16
2.2872e-40
-6.30637e-27
2.94724e-41
-1.93705e-14
-1.11234e-40
5.48235e-45
-4.65321e-09
-6.87563e-12
-1.27824e-53
-3.91814e-41
-1.14571e-55
-7.97118e-52
5.28314e-44
3.25072e-48
5.62054e-08
-7.09869e-09
2.66773e-29
1.21336e-09
-7.71366e-40
3.11044e-28
2.27704e-16
2.79214e-41
6.11025e-47
-1.17414e-14
-1.00164e-12
-3.57598e-46
-7.61692e-18
-5.11327e-40
-5.7936e-09
-3.70953e-54
1.26439e-48
1.10784e-09
6.26821e-61
5.75061e-42
-1.81689e-41
-5.86479e-41
-2.72347e-40
-2.72576e-40
-1.17574e-39
-5.56931e-40
-1.81159e-39
5.36215e-39
2.60465e-38
6.27266e-38
2.87893e-37
2.34366e-37
1.01963e-36
1.28376e-36
4.37745e-36
3.36354e-37
-3.8363e-37
-2.39699e-35
-1.14285e-34
-1.93273e-34
-8.21158e-34
-6.1525e-34
-2.55175e-33
2.51064e-34
2.70607e-33
1.46663e-32
6.90614e-32
9.28719e-32
3.86371e-31
3.21242e-31
1.56884e-30
1.47405e-30
6.27548e-30
6.63305e-30
2.51812e-29
2.91628e-29
1.00965e-28
1.24882e-28
4.00462e-28
5.14278e-28
1.55435e-27
2.03803e-27
5.88881e-27
7.89055e-27
2.11801e-26
2.96918e-26
6.76708e-26
1.10326e-25
1.82873e-25
-2.11918e-25
-1.07944e-24
4.64619e-25
-5.10038e-24
9.55837e-25
-2.29471e-23
-4.13376e-23
-1.62745e-22
-9.99808e-23
-6.09852e-22
-4.71295e-22
-1.66661e-21
-2.22064e-21
-5.6421e-21
2.90942e-22
5.39281e-21
2.6122e-20
1.08399e-19
3.65501e-20
4.36717e-19
1.89348e-19
1.71768e-18
1.83453e-18
6.2941e-18
6.57677e-18
2.1057e-17
1.17712e-17
2.96031e-17
6.91206e-17
6.39827e-17
-9.7878e-17
-4.56383e-16
1.08576e-16
-1.97307e-15
-3.17954e-15
-1.15243e-14
-1.12195e-14
-3.65604e-14
-4.07009e-14
-1.15084e-13
-6.61764e-14
-1.85444e-13
-3.51344e-13
-4.59127e-13
-1.04348e-12
-9.09989e-13
8.32661e-13
3.93909e-12
-1.4731e-12
1.65213e-11
2.61382e-11
9.09076e-11
6.43163e-11
3.06575e-10
3.11169e-10
9.8965e-10
8.34563e-10
1.00336e-09
3.06984e-09
3.19796e-09
9.26996e-09
9.94553e-09
2.72658e-08
3.01408e-08
7.81958e-08
8.88954e-08
2.18398e-07
2.55264e-07
3.79386e-30
5.93133e-07
7.13122e-07
1.56471e-06
1.10949e-06
1.93302e-06
7.37241e-07
2.05292e-06
6.46348e-07
1.87857e-06
2.77448e-06
1.70508e-06
4.27377e-07
4.04031e-06
2.17303e-06
1.3429e-06
1.34082e-07
4.87906e-06
2.34912e-06
5.786e-07
-1.53934e-07
5.04399e-06
2.17357e-06
-2.08034e-07
4.40097e-06
1.6656e-06
-3.82048e-07
-8.45335e-07
3.14728e-06
1.03276e-06
-4.60996e-07
-1.09933e-06
1.79806e-06
4.99474e-07
-3.98666e-07
7.81612e-07
1.72253e-07
-1.06217e-06
-2.10167e-07
2.24898e-07
2.78273e-08
-6.316e-07
1.14004e-08
-1.35699e-08
-2.58043e-08
-1.64555e-07
-3.85242e-08
-2.21843e-08
-9.85057e-09
-8.34808e-09
-4.44892e-09
-2.3176e-09
-1.43578e-09
-4.84066e-10
-3.48941e-10
-6.83462e-11
-6.28609e-11
-1.83821e-12
-6.7335e-12
3.04292e-12
5.81883e-13
1.83351e-12
6.44925e-13
6.45185e-13
3.23239e-13
1.55682e-13
9.62292e-14
2.6376e-14
2.00883e-14
2.5697e-15
2.86935e-15
-2.11309e-16
7.77682e-08
1.7615e-16
1.2936e-07
-6.46101e-07
1.10956e-11
-1.13894e-15
-6.04299e-16
1.68464e-07
-2.12444e-06
1.05164e-07
-1.26645e-15
-2.8806e-16
-1.58535e-08
-6.21761e-06
-1.10106e-06
-1.66012e-05
-3.83764e-16
-3.91832e-17
-4.8748e-06
-4.1464e-05
-8.54246e-18
1.26506e-17
-1.60231e-05
-9.77268e-05
-4.53745e-05
-0.000215721
3.89077e-17
1.30044e-17
1.31424e-06
-0.000114587
-0.000437529
-0.000266499
-0.000822061
2.06121e-17
3.00541e-18
2.63823e-18
2.00403e-19
3.2969e-19
-4.21196e-20
-0.000578971
-0.00145865
-1.75643e-19
1.16242e-20
-0.00117291
-0.00248794
-2.71097e-20
-0.00216936
-0.00396072
-8.15493e-21
-0.00372022
-0.00551352
-8.53999e-21
-0.00124086
-0.0060069
-0.00692051
-4.29871e-08
-4.13029e-21
-0.00908931
-0.00667793
0.0183872
0.0508851
0.143009
0.271915
0.462225
0.76538
0.995517
1.494
1.58809
1.19504
2.12365
1.76054
4.57326e-08
3.26956e-08
1.15457e-08
2.50381e-09
3.50367e-10
-1.21133e-09
-6.27238e-10
-5.49871e-10
-2.24843e-10
-8.61786e-11
-2.5315e-11
7.37609e-12
4.60694e-12
6.11605e-12
2.4668e-12
1.3225e-12
4.09536e-13
-2.31162e-14
-2.46173e-14
-5.59824e-14
-2.14436e-14
9.43379e-14
-1.29992e-14
-4.13842e-15
-1.0306e-17
1.26248e-16
4.0517e-16
1.52012e-16
2.85757
2.44845
-1.59647e-21
8.90216e-17
2.88638e-17
-3.75013e-19
-7.59929e-19
2.34916e-16
-1.08813e-21
3.63497
3.21724
2.33383e-15
-2.35642e-18
-8.45731e-19
-1.7922e-22
-8.12388e-23
3.05157e-23
1.0788e-22
4.38076
3.99668
-4.64963e-19
-1.4302e-19
-1.81471e-22
2.67451e-26
3.36624e-23
4.97805e-23
7.72553e-21
5.34136e-21
5.01328
4.87872
4.69562
1.06885e-20
3.71645e-21
5.84296e-24
2.48561e-24
2.98535e-20
-8.09732e-25
-2.77968e-24
1.72769e-21
4.8091e-22
1.31445e-21
1.24365e-22
-3.38852e-23
-1.61478e-23
2.94108e-23
-7.25167e-24
-4.78269e-24
-1.73243e-24
-3.19758e-24
-6.40233e-25
-3.00872e-26
-1.61498e-27
-2.30886e-25
3.08544e-28
1.14046e-26
3.7133e-27
1.04246e-28
1.19345e-27
7.12773e-28
5.46568
5.21592
5.48909e-30
2.35226e-28
-1.09427e-30
-8.45795e-25
-1.14134e-24
5.70694
5.50667
4.32959
4.67091
3.08582
3.42925
-1.23514e-25
-2.49046e-26
-4.18471e-25
1.87044
2.21795e-31
-8.81324e-30
2.16147
2.38749e-26
6.93694e-26
5.58089
0.94293
1.65958e-26
1.78286e-26
1.20662e-25
1.18676e-26
1.35448e-25
-6.56795e-28
-2.77732e-30
-1.59291e-30
8.44197e-18
-3.11841e-27
9.09163e-26
1.15174
-9.59544e-08
-7.46898e-08
2.76049e-16
1.57616e-15
2.51345e-16
9.05602e-16
1.78273e-16
4.49471e-16
1.07129e-16
1.96519e-16
5.71569e-17
6.66279e-17
2.54827e-17
1.78372e-17
9.81146e-18
2.53495e-18
2.82971e-18
-2.1181e-18
6.3051e-19
-2.5873e-18
-2.72554e-20
-1.98519e-18
-1.78329e-19
-1.23504e-18
-1.60044e-19
-6.80474e-19
-1.06224e-19
-3.38945e-19
-6.04695e-20
-1.55829e-19
-3.11049e-20
-6.49026e-20
-8.45526e-21
-1.45546e-20
-2.47102e-20
-6.25492e-21
-8.29088e-21
-2.46337e-21
-2.46072e-21
-8.73537e-22
-5.70834e-22
-2.87296e-22
-9.90841e-23
-7.57918e-23
8.62832e-24
3.68312e-22
2.15634e-22
1.43861e-21
6.50325e-22
1.08524e-22
2.7843e-22
1.40628e-21
5.53711e-22
1.14006e-22
2.10968e-22
9.27172e-22
3.34062e-22
7.79871e-23
1.17266e-22
-2.30312e-22
2.80295e-23
4.01586e-23
1.55384e-22
5.09947e-23
1.34328e-23
1.63803e-23
5.78967e-23
1.79354e-23
5.92892e-23
1.78169e-23
5.45172e-24
5.26682e-24
1.61846e-23
4.6341e-24
1.53048e-24
1.30451e-24
4.36806e-25
3.61192e-25
1.22561e-25
9.8416e-26
1.3273e-23
3.38282e-26
2.64023e-26
9.18872e-27
6.97691e-27
1.87763e-26
4.83453e-27
1.81684e-27
1.22755e-27
3.05809e-27
4.66416e-28
3.07484e-28
-2.28683e-19
1.18086e-28
7.60056e-29
-5.08033e-31
1.51334e-32
4.66214e-32
2.9495e-29
0.376097
4.97048e-32
-1.97916e-07
-1.15835e-07
-2.42628e-26
-1.2396e-26
0.503564
1.57175e-31
-3.58999e-07
-1.60415e-07
1.85459e-29
7.2705e-30
1.57407e-32
4.32745e-33
5.48181e-36
1.10302e-26
0.101337
-5.76269e-07
-1.97254e-07
-5.64092e-26
-1.46619e-25
1.20826e-33
-6.24247e-34
-8.29618e-07
-2.07634e-07
4.46852e-30
1.76925e-30
2.70521e-30
0.166683
0.613215
-1.53648e-14
-1.0614e-06
-1.78123e-07
-1.19523e-06
-8.88199e-08
4.03889e-08
9.98099e-08
5.78946e-08
8.64677e-08
2.01577e-07
1.10483e-07
2.3789e-08
1.85336e-08
8.4045e-11
-3.27257e-09
-2.47893e-09
-4.01105e-09
-7.55728e-09
-1.20138e-09
-1.10854e-09
-1.20917e-10
1.3879e-11
5.59421e-11
1.02021e-10
3.56117e-11
3.36965e-11
4.2198e-12
1.07328e-13
2.19816e-11
-1.32741e-12
-3.67095e-12
6.68888e-12
-6.65575e-26
-3.37365e-25
0.00252689
6.64981e-31
0.230597
0.690079
-1.34789e-17
4.25159e-31
-2.40098e-34
-1.39485e-34
0.28334
0.726646
1.6138e-31
9.5718e-31
-6.73701e-12
-8.04246e-12
-4.90208e-26
-6.10087e-28
-4.08567e-25
0.318171
0.729149
1.00921e-31
3.8677e-32
1.06891e-29
-0.000820948
-1.14034e-17
1.59588e-28
4.24147e-19
-8.66831e-31
-5.00955e-35
-1.44764e-36
-4.66681e-36
4.63342e-36
-2.54791e-06
1.42675e-35
0.333353
0.676694
-9.42968e-12
-1.90753e-11
7.98031e-27
3.30124e-27
-6.56487e-12
2.36697e-32
9.15684e-33
1.52066e-36
8.40351e-37
0.114266
0.3291
0.585794
-4.80022e-11
2.09244e-06
-8.79801e-12
-2.78661e-11
-1.49815e-12
4.11339e-27
4.94401e-28
0.297037
0.476212
0.806217
0.605399
0.908089
0.36518
5.48662e-33
2.14214e-33
3.37118e-33
2.82195e-37
7.53223e-39
7.96048e-34
-3.64121e-13
-6.74689e-13
0.43229
0.264483
8.78217e-29
-7.60895e-29
-5.95567e-12
-2.84708e-11
-1.61987e-07
6.79417e-29
4.9531e-34
1.18329e-33
1.85751e-34
3.45909e-39
-6.32272e-39
8.7933e-17
-0.0167057
-0.0214129
-0.0211357
-0.0118528
-0.00984906
-0.00329611
-0.00189614
-7.16216e-06
0.000291647
0.000295554
0.000265548
0.000122621
8.29513e-05
1.44689e-05
1.98248e-06
0.000153939
0.295304
0.181985
-1.76161e-28
-3.68209e-29
-4.08518e-28
-2.12387e-12
-1.94046e-11
-6.89379e-11
-7.48364e-11
-9.36625e-11
-1.55396e-10
2.85609e-10
-1.35371e-10
2.63596e-09
1.15997e-09
9.83947e-09
7.04473e-09
1.99497e-08
2.1643e-08
2.1239e-08
3.73605e-08
-9.3744e-08
8.61587e-09
-6.23985e-07
-3.06998e-07
-9.37723e-07
-1.92995e-06
-1.39093e-06
-2.73096e-10
8.47058e-07
8.5813e-06
-5.43011e-06
-5.26991e-06
-3.87012e-13
-1.79692e-13
-8.42102e-25
-1.94128e-24
1.96809e-25
-4.52972e-24
2.60189e-23
4.66313e-24
2.12498e-22
1.69073e-22
2.18388e-32
1.13224e-34
4.28419e-35
-2.11206e-39
1.46977e-39
-1.00728e-39
-2.92766e-39
6.9761e-41
2.18692e-40
-2.63475e-06
-1.87161e-06
-3.43292e-06
-3.46562e-06
-1.7507e-13
-1.83054e-10
-2.18217e-28
-9.80322e-28
-6.97637e-08
0.191944
0.119293
0.10214
9.8137e-41
-3.74613e-07
-1.00778e-07
0.0677914
2.11898e-41
-3.12978e-06
-5.09408e-06
2.55938e-35
9.76926e-36
-1.03248e-09
2.83265e-40
0.0516632
-7.80492e-07
8.92978e-08
8.55671e-08
4.78085e-08
6.95164e-08
9.58338e-08
5.23491e-08
1.63072e-08
7.2369e-09
3.40343e-08
2.16074e-09
1.98054e-08
-2.8082e-10
9.31125e-09
-9.63434e-10
3.51172e-09
-9.01153e-10
-6.04543e-10
-3.56921e-10
-6.71752e-10
-1.94268e-10
-2.46707e-11
-1.08339e-12
-9.30467e-11
5.41428e-12
6.8946e-12
4.21842e-12
1.47543e-12
5.73097e-13
-3.54763e-11
-7.29655e-14
-7.00512e-14
-5.53958e-14
-2.89937e-14
-5.07225e-14
-1.4405e-14
-1.74585e-15
-1.5391e-16
-3.17006e-14
-9.9652e-10
6.2976e-16
3.83959e-16
-9.21345e-14
0.0748943
0.0428452
-1.58696e-28
-1.29666e-27
1.34187e-05
4.12774e-07
3.36656e-05
9.62685e-42
5.72225e-36
1.41533e-35
2.20299e-36
3.55749e-36
8.09231e-37
1.5045e-16
6.81655e-17
-2.73687e-14
-4.04701e-14
0.0448331
0.02586
-2.91003e-29
-9.45513e-28
2.57321e-41
1.23803e-36
-2.53577e-18
-3.8198e-18
2.33628e-17
-2.88101e-18
6.13383e-18
-1.78588e-18
-9.0038e-19
-4.07369e-19
9.00688e-19
1.09546
1.51739
1.06611
1.29658
0.927816
0.993846
0.720441
0.670667
0.498197
0.393417
0.30082
0.199285
1.33466e-32
-5.79843e-22
-1.33227e-22
-6.14805e-05
7.54345e-05
3.69557e-05
-5.60823e-06
1.14205e-05
-6.37418e-06
-2.5434e-06
7.64397e-05
3.17783e-05
-6.86885e-06
6.76699e-06
0.00012393
6.0769e-05
0.000265684
0.00016993
-8.58823e-35
0.488205
0.000361593
0.000282225
-2.15155e-20
5.74761e-21
-1.98768e-22
-7.40821e-23
1.26569e-36
1.78416e-20
9.21695e-21
9.38135e-18
-7.34043e-42
2.84124e-37
-4.63342e-23
-2.87529e-23
0.157719
0.0864012
-1.5093e-16
-4.93744e-15
0.000121011
0.000295415
2.15769e-05
0.0255927
0.0149684
-3.11439e-29
-4.21028e-30
-6.23424e-30
-1.34399e-32
-6.99087e-31
1.31694e-31
-1.62646e-33
4.99903e-32
2.15392e-32
9.31129e-33
8.09301e-33
9.8968e-34
1.50116e-33
-8.44638e-37
1.63637e-34
-2.97181e-35
5.71048e-33
1.70121e-36
2.28521e-34
2.51801e-35
1.78315e-34
-1.0849e-35
-1.282e-35
3.3423e-35
6.50731e-35
-1.34259e-36
1.08069e-37
2.46587e-35
-9.89214e-36
2.54368e-37
5.97256e-37
8.47658e-36
-5.81472e-35
1.00077e-37
-4.12114e-14
-8.01649e-15
-2.92923e-14
5.23127e-38
1.08662e-28
-2.0799e-28
-2.3059e-41
1.24513e-23
-7.68359e-24
-8.72505e-24
-3.79285e-24
-1.61233e-24
-9.75757e-25
-1.89434e-25
-1.61925e-25
-8.60198e-27
-1.68341e-26
3.03267e-27
-3.31347e-28
1.51794e-27
3.98817e-28
-1.42903e-27
3.85328e-28
1.86203e-29
-1.4825e-27
-1.17248e-28
-1.01309e-27
-1.27985e-28
-5.35051e-28
-9.13167e-29
-2.21831e-28
-5.12557e-29
-5.74989e-29
-8.73487e-30
-2.27811e-29
-8.35012e-30
-6.46637e-30
6.50292e-30
-1.18515e-30
8.42571e-30
-3.28118e-29
3.18716e-31
6.38794e-30
4.50226e-29
2.02728e-29
3.66359e-30
7.54688e-30
-2.09654e-30
-7.91746e-26
1.74099e-29
1.62554e-30
1.82285e-30
-2.29017e-30
2.80982e-31
-2.40895e-30
-1.14415e-31
-1.58803e-30
-8.41308e-15
-1.41644e-14
-3.97103e-29
4.12364e-37
-1.50567e-31
-8.685e-31
-5.19766e-30
-1.92155e-30
-2.24547e-39
-3.96455e-31
-5.89725e-31
-1.20247e-30
-2.80294e-32
3.01535e-21
1.05317e-21
4.11428e-21
2.74594e-22
1.75108e-21
5.00241e-23
-5.71271e-23
-3.01225e-23
-1.18698e-23
-4.97864e-24
-1.43466e-23
-1.80368e-24
1.7386e-25
1.17759e-25
-4.91624e-25
6.59421e-26
3.55519e-26
1.44008e-26
3.32296e-26
5.83758e-27
-8.08122e-29
-1.15531e-28
2.29449e-27
-8.03097e-29
-8.76885e-29
-3.35958e-29
-1.79099e-36
-6.99211e-35
-1.24539e-31
1.84404e-31
2.45871e-30
1.37242e-30
9.35058e-30
3.87103e-30
6.58044e-31
1.4568e-30
5.64622e-30
1.30293e-30
4.58557e-31
2.19407e-31
-6.37812e-31
-6.98175e-31
-6.12558e-33
-4.21472e-31
-3.46249e-32
-2.09763e-31
-1.44619e-30
-5.86323e-31
-9.3778e-32
-2.21088e-31
-1.08543e-30
-3.43914e-31
-1.19404e-30
-2.50266e-31
-9.57778e-32
-4.01818e-32
-2.36235e-32
-5.66412e-34
7.46549e-41
8.96617e-38
4.56546e-15
2.61208e-15
3.43047e-15
6.56208e-16
3.20098e-16
-3.82441e-17
-1.12264e-16
-4.76501e-17
-4.28752e-17
-5.32049e-18
4.83533e-19
1.36195e-18
2.20392e-18
5.22771e-19
2.81935e-19
2.08808e-18
1.13621e-20
1.24309e-18
-5.49249e-20
-1.81702e-19
2.04455e-19
7.34744e-28
3.26086e-08
4.74126e-05
3.49347e-32
-7.90789e-36
-4.68628e-35
9.54971e-38
-7.17581e-41
2.45283e-40
3.2645e-36
0.0139152
0.0207109
0.0082822
0.00798497
0.00445306
-1.41045e-38
-2.187e-38
-4.35329e-39
-2.90361e-19
-5.56159e-19
2.24447e-28
5.22699e-28
4.67483e-29
-3.57517e-42
-1.21671e-42
6.8743e-21
-6.03996e-30
-1.2694e-30
-4.40076e-33
3.92373e-33
-0.00123942
-0.000295108
-2.56186e-31
-0.000470425
0.0713213
0.118314
0.0315354
6.39156e-28
7.05498e-29
4.07406e-29
-9.07596e-30
-4.04111e-29
-1.18247e-29
-1.9684e-29
-2.2111e-30
-1.99899e-30
-9.59651e-32
-2.10988e-31
3.05712e-32
-6.97895e-33
1.42362e-32
3.50325e-33
3.35347e-33
-9.06115e-36
-0.0124654
2.28637e-44
3.95692e-45
-1.13523e-30
0.0555959
0.0843448
-6.54986e-15
-4.26451e-15
-5.44941e-34
2.55802e-33
2.15196e-32
8.70618e-33
1.3164e-37
8.78641e-31
4.12026e-31
1.21993e-33
3.30519e-33
1.93398e-32
6.71943e-33
1.19656e-33
2.26389e-33
0.00392892
1.51476e-33
-1.93178e-40
8.70655e-40
-1.22909e-34
0.273854
9.95793e-09
1.69521e-08
9.38955e-13
9.06595e-09
2.13068e-08
-1.19001e-10
1.8056e-22
3.29289e-07
-1.70495e-31
1.31112e-15
0.000257025
9.50648e-05
0.000176529
0.000180019
-5.40038e-34
-2.37851e-30
0.0337037
6.44736e-38
2.18631e-38
1.44694e-38
-4.47101e-35
6.3689e-32
1.51936e-32
5.5386e-33
2.71062e-33
-4.81401e-32
-9.33571e-33
-7.73819e-32
-1.63819e-32
-6.79284e-32
-1.58416e-32
-3.72265e-32
-1.48102e-31
3.29485e-32
2.55976e-31
6.95918e-31
3.37028e-30
1.39836e-31
7.74651e-31
1.65602e-31
5.48875e-31
1.28086e-31
2.61191e-31
6.32013e-32
-2.41986e-33
-1.62467e-31
5.5474e-33
-7.15828e-31
-3.66076e-30
2.93006e-32
-3.92527e-30
-1.83705e-29
-1.37687e-29
-6.04289e-29
-1.73457e-33
-3.06141e-30
-0.00741155
1.11504e-12
-9.09345e-05
0.0410545
0.0572226
0.0287861
0.0370532
0.0192144
0.0229296
2.82485e-30
0.0105057
0.013144
0.000106619
0.000143296
-3.57876e-39
-2.5917e-40
2.26172e-28
1.03099e-27
-1.20584e-27
2.32555e-27
-2.78875e-19
-8.61534e-19
-4.0104e-20
-6.54231e-40
2.39589e-44
7.9582e-45
0.00221052
0.00238501
-4.84627e-40
4.89558e-34
1.6079e-31
-2.05489e-33
4.94935e-39
3.21221e-39
-0.00424918
-7.0654e-30
-1.69763e-30
0.0122316
-0.00015366
5.24083e-05
4.49181e-22
6.37993e-23
1.73381e-30
4.16871e-34
7.41994e-34
0.00900883
0.00766291
6.49514e-18
3.54143e-32
-2.46843e-26
-5.79194e-27
6.3056e-32
0.0136014
-0.0114637
-0.00408306
0.0060902
0.00587412
1.08547e-28
1.40569e-34
2.37134e-34
1.10813e-39
7.05554e-40
1.49627e-45
6.08246e-46
0.000726874
-0.000332796
-3.21452e-08
-3.41216e-15
3.14968e-15
9.9161e-31
0.00119066
2.80441e-41
3.33677e-34
3.81381e-34
0.0017729
-2.02005e-33
5.48509e-05
-1.43616e-21
6.45019e-21
9.50067e-41
0.00122443
-1.4009e-15
-0.000871888
-0.00143419
-0.000891434
4.89826e-23
3.09077e-29
4.60556e-35
7.4034e-35
-5.59695e-41
-0.000992476
-0.000337028
-2.63048e-30
-6.7902e-31
-4.11126e-34
0.00744482
-0.00107377
-0.00210676
-0.00038339
-0.00720724
3.56192e-34
1.06833e-34
4.37216e-35
3.97312e-36
7.17503e-35
1.54684e-34
-1.29185e-35
0.000615828
2.45299e-41
1.6236e-39
-2.07112e-46
-6.66768e-47
2.71416e-46
-2.02993e-47
1.12258e-46
3.98713e-45
3.24915e-32
-1.43514e-33
-1.9555e-33
0.0077554
9.91211e-13
1.19405e-12
3.51594e-22
-5.77988e-48
4.52568e-47
-4.68029e-48
2.26117e-35
3.14216e-35
2.45431e-40
1.53357e-40
4.18976e-40
-1.72644e-21
-2.75358e-21
-1.03273e-17
-1.59903e-25
-1.05153e-25
9.55888e-27
-2.40755e-26
1.86725e-13
-8.4668e-29
-2.55973e-28
-3.83e-28
-1.06134e-27
-1.69828e-27
-4.31347e-27
-7.42433e-27
-1.71367e-26
-3.18913e-26
-6.67372e-26
-1.33438e-25
-2.56582e-25
-5.37383e-25
-9.68027e-25
-2.11662e-24
-3.51579e-24
-8.1509e-24
-1.2086e-23
-3.07409e-23
-3.68043e-23
-1.14021e-22
-8.55796e-23
9.60705e-23
5.1187e-22
-1.59689e-22
2.53941e-21
3.20255e-21
1.37988e-20
1.19717e-20
5.81324e-20
4.99859e-20
2.00444e-19
2.40339e-19
7.90898e-19
5.57655e-19
2.123e-18
1.32302e-18
4.88208e-18
7.95442e-18
1.77251e-17
9.80304e-18
3.45018e-17
6.329e-17
1.19344e-16
5.91304e-17
1.97961e-16
4.05521e-16
6.50417e-16
1.35283e-15
2.09593e-15
9.18517e-16
2.8531e-15
6.61978e-15
8.67553e-15
2.04777e-14
2.58051e-14
1.1417e-15
-5.51907e-23
-5.59527e-26
6.19959e-14
7.49995e-14
-1.77222e-25
2.85011e-14
7.98862e-14
2.12994e-13
2.19069e-13
7.57007e-14
1.98568e-13
5.86407e-13
5.06796e-13
1.52947e-12
1.25714e-12
3.88374e-12
3.02601e-12
9.58359e-12
7.05733e-12
2.29565e-11
1.59176e-11
-1.80461e-27
5.32871e-11
4.47129e-14
3.46498e-11
1.99352e-12
6.24257e-14
4.27964e-12
1.19669e-10
7.26184e-11
1.84005e-11
-0.00477028
0.00249961
0.00201988
1.31488e-41
0.00060266
8.53447e-21
2.07723e-21
6.76432e-36
1.69409e-26
5.37827e-41
0.000306449
3.91839e-43
3.95573e-35
-1.42621e-34
-1.06657e-35
-5.10394e-33
-1.30167e-15
7.96209e-15
5.80722e-14
4.70151e-14
1.4259e-13
5.82545e-29
-3.89849e-35
-0.000441127
0.0125202
1.01799e-26
0.0126327
-0.00115849
-0.00267687
4.94727e-18
-0.0071969
-0.00128162
4.83685e-34
5.56485e-37
1.68811e-37
1.64643e-35
7.38181e-34
-7.58273e-34
-8.21304e-34
-1.43501e-34
-0.00224186
-0.001016
-6.67386e-05
-0.000401092
2.09551e-05
-0.000128201
2.49536e-31
-2.40107e-32
0.00678088
0.0043417
-1.15397e-31
1.35791
1.95915e-05
5.04979e-06
-2.71349e-06
2.46654e-17
-1.67116e-31
-1.86036e-32
-3.99974e-32
-8.23976e-33
-9.4494e-33
-2.82291e-33
-2.21197e-33
-7.82824e-34
-5.09083e-34
-1.93341e-34
-1.14757e-34
-4.56665e-35
-2.53881e-35
-1.0495e-35
-4.22179e-35
-5.51718e-36
-2.38134e-36
-1.89678e-36
-6.64606e-37
6.772e-33
-1.16119e-36
1.82813e-36
2.55951e-37
-3.94709e-21
0.0629389
-1.21193e-22
2.80566e-22
-2.77641e-22
-4.88053e-22
-9.6963e-23
1.00085e-08
-2.15445e-09
-3.51479e-07
9.2742e-06
-5.08114e-39
1.51318
1.6809e-28
5.93697e-14
2.85275e-15
3.53524e-11
7.53169e-12
1.461e-10
8.94303e-41
2.31902e-40
-1.53955e-20
-8.58459e-21
-1.58715e-20
2.20477e-28
8.97491e-29
3.66175e-26
-1.46589e-48
1.7978e-47
0.00028688
-2.10956e-22
-7.65239e-36
1.0423e-36
-1.48618e-34
-9.23723e-36
0.634733
3.18101e-19
3.25027e-13
1.46502e-13
-0.00281213
4.10328e-05
0.000177628
-0.000841189
-0.00109159
-0.00294457
5.12142e-28
1.89234e-28
-4.94932e-25
-2.19874e-06
-1.585e-06
3.20691e-05
-2.4422e-05
0.000284717
0.000146618
0.00075316
-1.63709e-42
-1.42481e-42
-5.33266e-43
1.53693e-26
6.06666e-26
7.14026e-22
6.10608e-21
-6.57403e-37
-1.17763e-35
-1.03263e-34
9.881e-11
1.73617
-2.51363e-06
7.56005e-31
-5.41089e-27
-1.50834e-24
-4.00064e-36
-3.32642e-35
1.63638e-35
0.000235364
0.000170678
0.00951122
0.00482151
-6.41802e-29
-1.34483e-13
-1.34593e-12
6.87233e-11
1.2675e-11
1.936e-12
-1.40271e-20
6.97904e-37
2.01205e-37
-2.91178e-49
7.0755e-48
3.88831e-47
1.40342e-47
-7.62878e-47
-3.34204e-47
-8.77947e-46
-3.06478e-46
-1.06268e-45
-2.87507e-46
5.06509e-45
1.91493e-45
1.10556e-44
3.59648e-45
-1.50007e-44
-6.41421e-45
-2.06104e-43
-6.99013e-44
-3.17348e-43
-1.03348e-43
4.82035e-43
1.65122e-43
4.03111e-42
1.26744e-41
1.65956e-41
5.04397e-42
-2.52427e-41
-8.30424e-42
-1.59997e-40
-5.39115e-40
-4.98745e-40
-1.34822e-40
1.83199e-39
5.6112e-39
1.01201e-38
2.9859e-39
-1.04101e-38
-3.50699e-39
-1.01073e-37
-3.6029e-37
-4.43332e-37
-1.30464e-37
-2.28679e-37
-5.49211e-37
5.64442e-36
1.56104e-36
2.6168e-35
8.56675e-35
1.19264e-34
3.46338e-35
-1.06066e-34
-3.727e-34
-3.02242e-35
-2.8956e-33
-1.01405e-32
-1.14238e-32
-4.10709e-32
1.96259e-32
7.30776e-32
7.29202e-31
2.76335e-30
1.84104e-31
2.97713e-30
1.08799e-29
2.02694e-30
3.00161e-30
-1.03486e-28
-4.23935e-28
-7.97421e-28
-2.69353e-27
-2.38049e-28
-1.71467e-27
-9.21265e-27
-6.22811e-27
-1.56296e-26
2.54793e-31
-3.18824e-26
-3.49364e-26
2.17439e-25
8.90867e-25
-6.18266e-26
3.59293e-24
6.73929e-24
2.20219e-23
1.41812e-23
7.27774e-23
4.63884e-23
1.07553e-22
2.42434e-22
2.11029e-22
-1.47449e-21
-5.88842e-21
2.69252e-22
-2.29342e-20
-3.79781e-20
-1.19884e-19
-8.71756e-20
-2.0185e-19
-8.88045e-22
4.3949e-19
1.78326e-18
1.00067e-19
-4.03769e-19
6.98057e-18
1.58055e-17
4.79175e-17
4.75422e-17
1.23686e-16
2.65746e-17
-4.84831e-17
-2.94069e-16
-1.15216e-15
-4.07119e-15
-1.32266e-15
-1.36325e-14
-1.38898e-14
-4.13885e-14
-4.19981e-14
-1.1861e-13
-2.34277e-14
1.63331e-14
5.24526e-13
1.87845e-12
-3.12161e-16
-1.21692e-13
3.12271e-12
9.05522e-12
6.42119e-12
1.00621e-12
7.90132e-12
2.08789e-11
-2.61498e-43
3.99286e-37
1.18604e-16
-1.02177e-14
-3.30701e-14
8.01096e-16
-4.01651e-14
-7.15784e-14
-3.15488e-14
-8.37606e-14
-1.38305e-14
-6.51489e-14
-1.48131e-16
-1.78696e-15
-3.03623e-14
3.01465e-15
-6.74984e-15
-1.19088e-13
-6.24233e-14
-2.40718e-13
-2.08695e-13
-1.22186e-13
-3.68423e-13
2.19965e-12
1.52404e-13
1.0394e-11
4.23989e-12
2.29162e-11
1.53641e-11
2.74739e-11
2.84233e-11
-9.61662e-11
1.37201e-11
-5.83722e-10
-2.07965e-10
5.04866e-28
8.65575e-34
4.88249e-33
2.64743e-36
4.84385e-37
2.75325e-38
8.68117e-38
1.41592e-35
8.06443e-40
1.50788e-38
8.55522e-38
1.59926e-38
1.27862e-30
6.69031e-30
-2.24643e-23
5.44099e-23
6.1039e-21
0.00360835
0.00216442
4.86379e-41
1.19504e-40
9.62652e-28
3.34252e-28
0.000393414
0.0050307
-2.57025e-21
7.21117e-29
-7.70222e-22
-4.46943e-22
-9.71406e-22
1.61995e-30
-0.0114624
-8.374e-17
1.03689e-27
-7.91612e-29
-8.70078e-26
1.30811e-25
2.94504e-37
9.04206e-37
3.92501e-36
-8.62611e-22
-4.16254e-22
-1.8468e-14
2.20921e-05
6.06087e-06
2.13897e-11
-2.78544e-42
-9.5282e-42
5.91734e-27
-3.40361e-28
-2.26466e-22
2.01025e-21
-1.87258e-22
-1.28965e-35
-5.04121e-35
-9.08313e-44
-7.44389e-07
-2.10713e-07
-4.604e-13
9.66843e-05
0.000256462
0.00012945
6.75185e-05
7.44989e-36
2.78892e-36
7.20581e-36
-1.46096e-09
-8.45304e-10
-1.53319e-34
-2.23605e-35
-1.5098e-35
1.83998e-35
2.27034e-13
-1.30789e-25
1.59361e-29
9.06572e-30
6.39619e-38
1.2378e-38
2.94477e-39
2.36734e-39
8.10292e-39
1.58127e-39
-0.000384342
-1.6425e-14
-1.37006e-14
-1.22655e-12
-4.89134e-12
-1.91783e-13
-6.0285e-43
2.17989e-12
-0.000898448
-0.00289777
-0.00016074
-0.00552986
-0.00638546
-0.00702758
-0.00942151
-0.00188924
-0.00922103
0.0370856
0.0155322
-0.0141841
-0.00254249
1.71463e-27
-1.04439e-27
3.27725e-12
-6.21076e-12
-2.34931e-44
-1.00506e-46
-1.45172e-21
2.8617e-21
1.18924e-35
5.99628e-35
9.78636e-05
5.41184e-05
1.70302e-33
1.30001e-33
1.36497e-32
-4.89285e-32
6.90775e-33
6.70667e-30
3.2284e-29
-1.67402e-33
-6.37567e-08
-2.05847e-13
1.22522e-13
-7.77253e-41
-2.06127e-40
1.18261e-42
8.95006e-43
4.50778e-42
1.32603e-41
0.00573981
0.00271549
0.00234875
9.38856e-07
2.57705e-24
3.72869e-24
1.8868e-24
1.28033e-07
-5.64435e-23
-9.75946e-23
6.15104e-31
4.48998e-17
2.00841e-17
9.04113e-17
4.92452e-17
-5.8411e-18
2.65351e-17
-8.0881e-16
-2.87278e-16
-1.94671e-15
2.09444e-17
-8.49357e-17
1.31385e-17
-2.06932e-17
7.23475e-18
-2.97943e-18
-1.53954e-16
3.72395e-18
-2.19128e-15
0.00295485
0.00120279
0.00185401
0.000672308
0.000931224
0.00028799
0.000320589
6.49313e-05
3.5997e-05
0.000221271
-9.2154e-06
-3.48416e-05
-1.94189e-05
-6.42308e-05
-0.00010801
-9.58402e-05
-0.000208938
-0.000124256
-3.78572e-05
-3.27685e-05
-0.000133595
-2.18031e-05
-0.000119411
-5.01646e-06
6.8934e-06
1.22923e-05
1.32399e-05
1.52167e-05
5.41923e-06
4.58407e-06
7.60853e-07
7.67138e-08
-2.66842e-07
-3.75398e-07
2.99517e-05
-5.11372e-07
-3.89001e-07
-1.20615e-07
-7.99452e-08
-7.07296e-08
-3.30043e-09
1.03713e-08
-8.99738e-07
0.00154255
0.000956272
-7.85543e-16
-3.19887e-16
2.46394e-41
1.01025e-41
8.12493e-37
2.22525e-37
5.57307e-38
5.86691e-38
1.48387e-38
1.4961e-38
2.7697e-48
3.81745e-39
7.54753e-09
7.32377e-09
1.74527e-08
6.2287e-09
1.38624e-42
-1.75581e-05
1.19942e-09
3.23133e-10
1.52654e-37
1.47115e-37
-1.77086e-38
-9.25554e-44
4.55801e-25
1.22482e-25
-2.50491e-36
2.37056e-35
1.13755e-05
9.43337e-06
7.43554e-06
8.3774e-19
1.61438e-18
7.14078e-19
2.52254e-19
-1.66826e-20
-1.2274e-20
3.10518e-39
1.92065e-38
-5.47009e-31
-4.25205e-31
-2.07519e-09
-1.66562e-09
-3.41321e-10
-1.02617e-09
-1.66716e-09
-1.63608e-09
6.35598e-09
5.82851e-12
-0.0021392
-1.60709e-20
-6.29312e-21
7.37129e-29
4.78257e-29
-0.0172414
-0.0156062
4.27052e-09
-3.03823e-10
-2.95347e-10
-2.68251e-10
-5.87214e-10
-2.1794e-10
-4.20976e-11
-1.14796e-11
-1.45731e-10
7.6709e-12
8.28116e-12
7.00453e-12
1.45041e-11
5.34504e-12
9.61791e-13
2.31719e-13
3.35273e-12
-1.60425e-13
1.54713e-12
-2.63184e-13
4.40144e-13
-2.34393e-13
-9.46091e-14
-5.52501e-14
-3.21443e-15
2.43355e-15
-1.13129e-13
2.5947e-15
1.87995e-15
3.42325e-15
1.2036e-15
1.86526e-16
3.46349e-17
6.66973e-16
-2.41581e-17
-2.85268e-17
-4.81212e-05
4.46764e-05
1.56137e-27
5.16228e-28
1.20437e-27
-5.65117e-27
3.16697e-15
-2.46944e-08
4.222e-08
-4.92215e-10
-4.59345e-22
-5.11614e-22
-1.7457e-42
-1.31778e-41
9.53839e-06
7.67555e-05
5.67828e-05
3.00326e-05
3.19809e-05
1.4362e-05
-1.15444e-27
-4.08543e-28
3.68356e-39
1.40691e-38
-3.53128e-26
-2.17641e-26
-9.54621e-06
1.11702e-24
1.1626e-36
1.81532e-35
1.24751e-34
5.27136e-35
4.76461e-39
5.72296e-41
-5.23483e-05
5.35656e-38
3.32338e-38
3.05092e-16
-1.10261e-09
5.33904e-38
-5.53901e-10
9.60244e-05
5.74084e-40
-6.78848e-07
-2.74278e-07
8.35458e-25
-4.53741e-33
-0.0188464
-0.0224862
0.028362
-0.00169181
-0.024741
-0.0202613
3.37763e-28
2.42423e-28
1.78654
1.52501e-27
1.18864e-27
6.76877e-27
5.63802e-27
2.94219e-26
2.594e-26
1.24172e-25
1.1626e-25
-4.03807e-15
-1.80448e-15
1.74053e-15
6.17302e-14
1.42438e-13
2.91964e-13
1.3964e-13
1.55045e-13
-1.47314e-14
-3.46089e-12
-8.81448e-12
-1.76554e-11
-3.44184e-11
-1.52964e-11
1.45693e-11
3.77534e-10
9.48656e-10
1.80957e-09
3.44782e-09
-1.37846e-11
1.21616e-13
2.02654e-09
3.83232e-10
1.59104e-09
5.78832e-09
-8.62319e-09
-7.0331e-08
-1.61722e-07
-3.52964e-08
5.0344e-25
5.11581e-25
1.98973e-24
2.20876e-24
7.64581e-24
9.40931e-24
2.87316e-23
-1.43524e-24
5.75583e-09
9.65287e-38
2.88644e-37
-2.21756e-21
-9.84183e-45
2.74145e-45
1.04428e-35
1.28354e-35
1.27931e-35
-2.10877e-35
5.25321e-39
-2.04946e-38
4.13638e-42
1.71421e-36
-2.27142e-35
-2.08753e-34
-1.1089e-34
-1.5845e-35
-4.35408e-35
-2.83808e-07
-5.02882e-07
4.05931e-35
1.9823e-34
-6.42344e-32
7.72761e-38
-2.09535e-36
5.33471e-40
2.44638e-29
1.12499e-28
0.00123667
0.00110092
-3.28751e-10
-6.42314e-36
2.61107e-34
0.174288
0.103051
0.0408537
-2.52706e-13
-6.43731e-14
-1.93323e-21
-5.02902e-22
0.00121996
-5.35038e-27
-2.66027e-12
-4.42118e-12
-1.16075e-11
-4.34185e-15
-6.19354e-15
-1.93626e-11
3.91529e-23