/*--------------------------------*- C++ -*----------------------------------*\
  =========                 |
  \\      /  F ield         | OpenFOAM: The Open Source CFD Toolbox
   \\    /   O peration     | Website:  https://openfoam.org
    \\  /    A nd           | Version:  6
     \\/     M anipulation  |
\*---------------------------------------------------------------------------*/
FoamFile
{
    version     2.0;
    format      ascii;
    class       surfaceScalarField;
    location    "7776000";
    object      phiw;
}
// * * * * * * * * * * * * * * * * * * * * * * * * * * * * * * * * * * * * * //

dimensions      [0 3 -1 0 0 0 0];

internalField   nonuniform List<scalar> 
35090
(
-8.88695e-08
-7.93673e-09
1.22357e-07
-2.09918e-08
-3.26342e-08
1.04598e-09
-6.73657e-08
1.27953e-07
9.6443e-08
-2.94007e-08
-1.39186e-06
-1.96975e-06
-4.24307e-07
3.17153e-08
1.57828e-06
-1.02082e-06
-3.764e-09
4.91469e-08
-2.38962e-07
8.37006e-09
9.60285e-08
-9.57538e-07
1.31236e-09
4.74518e-08
-2.4192e-07
5.47814e-08
1.09955e-07
-6.84253e-07
-2.08574e-08
7.77767e-08
-5.28033e-07
-1.58066e-09
1.63862e-07
-5.09315e-07
-2.1804e-10
1.48114e-07
-5.01575e-07
-2.09599e-09
1.49041e-07
-5.12706e-07
-5.44437e-09
1.45924e-07
-5.38078e-07
-2.85089e-09
1.46297e-07
-6.60023e-07
2.11537e-08
1.50071e-07
-4.48396e-07
-1.20179e-08
1.83307e-07
-7.51258e-07
-1.91565e-08
1.02268e-07
-7.15615e-07
1.42323e-08
1.95079e-07
-3.80162e-07
8.29758e-09
1.59243e-07
-4.8438e-07
1.90047e-08
1.53675e-07
-4.2487e-07
-3.35438e-08
1.98939e-07
-8.67716e-07
1.55747e-09
8.89056e-08
-2.48463e-07
2.07522e-08
1.8283e-07
-6.37224e-07
-9.56811e-09
5.72172e-08
-7.48443e-07
1.29624e-08
1.57883e-07
-2.53904e-07
-2.44952e-08
2.30073e-07
-7.84327e-07
1.07281e-09
1.00015e-07
-2.08926e-07
3.59212e-08
2.38576e-07
-6.25383e-07
-1.91339e-08
1.76177e-07
-4.00704e-07
-3.16736e-09
2.1835e-07
-4.83151e-07
-4.61862e-09
2.17901e-07
-3.58705e-07
5.17788e-09
1.85796e-07
-5.53447e-07
4.92053e-09
1.69584e-07
-5.23828e-07
2.32491e-08
1.24329e-07
-4.71138e-07
-7.68839e-09
1.83076e-07
-7.48885e-07
-1.95525e-08
1.67969e-07
-4.24346e-07
2.24327e-09
1.8157e-07
-5.5207e-07
2.43268e-09
1.96378e-07
-4.64898e-07
2.08651e-08
1.65279e-07
-4.34886e-07
-7.35297e-09
2.43078e-07
-7.15313e-07
-2.0175e-08
2.0192e-07
-5.08606e-07
5.63193e-09
2.48562e-07
-4.36036e-07
2.87155e-09
1.95473e-07
-3.99907e-07
-1.71106e-09
1.38839e-07
-5.51466e-07
1.58328e-09
1.93596e-07
-4.85005e-07
2.37582e-08
1.5308e-07
-4.4416e-07
2.95026e-09
2.41576e-07
-6.35797e-07
-2.32798e-08
2.18236e-07
-3.75846e-07
-4.56639e-09
2.36371e-07
-5.16143e-07
-8.32511e-10
2.36469e-07
-3.85844e-07
2.96118e-11
1.62579e-07
-5.56254e-07
4.15756e-09
1.8887e-07
-4.96473e-07
2.42545e-08
1.40447e-07
-4.60744e-07
1.63036e-09
2.24419e-07
-6.56451e-07
-2.30436e-08
2.07559e-07
-3.9831e-07
-3.8305e-09
2.22512e-07
-5.31303e-07
3.18605e-09
2.27859e-07
-4.58302e-07
1.79055e-08
1.64264e-07
-3.73843e-07
-3.37088e-08
2.54732e-07
-8.03389e-07
-1.58826e-10
1.04547e-07
-2.11101e-07
3.54992e-08
2.44221e-07
-6.43207e-07
-1.90609e-08
1.59454e-07
-4.33467e-07
-7.87504e-10
1.98664e-07
-5.75014e-07
5.98709e-10
1.93218e-07
-4.78503e-07
1.84695e-08
1.69199e-07
-3.84673e-07
-2.75898e-08
2.54465e-07
-8.13452e-07
1.59101e-09
9.61084e-08
-2.05238e-07
2.73405e-08
2.13755e-07
-7.4407e-07
-1.78929e-08
1.30202e-07
-4.36044e-07
-1.34281e-12
1.78335e-07
-5.3679e-07
1.03496e-09
2.08312e-07
-3.81351e-07
-1.1817e-10
1.54577e-07
-5.3081e-07
-3.16279e-09
1.64551e-07
-4.99801e-07
4.19946e-10
1.8822e-07
-4.74551e-07
-1.71592e-10
1.75323e-07
-5.22759e-07
3.86312e-09
1.76532e-07
-5.55226e-07
1.61717e-08
1.99422e-07
-2.60534e-07
-3.19609e-08
2.70141e-07
-7.47121e-07
-3.84701e-09
1.35959e-07
-1.68899e-07
1.91915e-09
2.53894e-07
-8.23389e-07
1.2598e-09
6.3252e-08
-2.18428e-07
2.27657e-08
1.86108e-07
-6.99011e-07
-2.14585e-08
9.28337e-08
-7.10692e-07
-2.07736e-09
2.23571e-07
-4.54331e-07
6.66501e-09
1.33538e-07
-7.24522e-07
3.00376e-08
1.61661e-07
-3.52907e-07
1.19836e-08
1.76366e-07
-6.73888e-07
-2.11864e-08
1.81022e-07
-4.10188e-07
-2.17961e-09
2.10885e-07
-5.47734e-07
2.29773e-09
2.12533e-07
-4.43088e-07
1.7192e-08
1.705e-07
-3.85144e-07
-3.3149e-08
2.52029e-07
-8.18297e-07
-1.14917e-10
9.77824e-08
-2.06917e-07
3.40753e-08
2.25848e-07
-6.71433e-07
-1.49816e-08
1.49906e-07
-4.20135e-07
-1.72379e-09
1.87887e-07
-5.46736e-07
1.00515e-09
2.03888e-07
-3.52925e-07
3.40017e-09
1.62633e-07
-4.94552e-07
-3.76756e-09
1.64627e-07
-4.7029e-07
-3.29368e-09
1.80886e-07
-3.69251e-07
-2.63432e-08
1.65288e-07
-6.52183e-07
8.86839e-08
9.93614e-09
-8.17786e-07
5.7985e-08
1.11495e-09
-1.19998e-07
1.81399e-07
2.55651e-08
-8.45654e-07
8.50271e-08
-1.2299e-08
-3.91062e-07
2.51253e-07
1.31848e-09
-5.46142e-07
1.79219e-07
4.45591e-10
-4.6434e-07
1.80491e-07
1.52892e-10
-4.64664e-07
1.82556e-07
2.05806e-11
-4.65053e-07
1.82817e-07
8.4246e-12
-4.65757e-07
1.82644e-07
-1.04757e-12
-4.66032e-07
1.82378e-07
2.42975e-12
-4.66325e-07
1.82103e-07
-1.23274e-12
-4.66595e-07
1.81861e-07
-1.21399e-12
-4.66846e-07
1.81611e-07
-1.20202e-12
-4.67091e-07
1.81362e-07
-1.09171e-12
-4.67332e-07
1.8112e-07
2.27821e-12
-4.67597e-07
1.80906e-07
-1.17642e-12
-4.6782e-07
1.80677e-07
-1.05794e-12
-4.68059e-07
1.80441e-07
2.30123e-12
-4.68282e-07
1.80219e-07
2.26568e-12
-4.68515e-07
1.79985e-07
2.14868e-12
-4.68742e-07
1.79761e-07
-1.02275e-12
-4.68977e-07
1.79525e-07
2.11079e-12
-4.69224e-07
1.79326e-07
-1.08835e-12
-4.69427e-07
1.79077e-07
-1.0656e-12
-4.69664e-07
1.78842e-07
-9.66006e-13
-4.69912e-07
1.78637e-07
2.0992e-12
-4.70123e-07
1.7839e-07
1.9793e-12
-4.70362e-07
1.78151e-07
-9.40516e-13
-4.70614e-07
1.7794e-07
1.93964e-12
-4.70829e-07
1.7769e-07
-9.16848e-13
-4.71076e-07
1.77442e-07
1.8901e-12
-4.71342e-07
1.77232e-07
-8.92865e-13
-4.71579e-07
1.76991e-07
1.84034e-12
-4.71805e-07
1.76728e-07
-8.68976e-13
-4.72061e-07
1.76471e-07
1.79038e-12
-4.72338e-07
1.76249e-07
-9.19819e-13
-4.72591e-07
1.75998e-07
-8.98116e-13
-4.72851e-07
1.75742e-07
-8.85086e-13
-4.7309e-07
1.7546e-07
-8.00289e-13
-4.7337e-07
1.75187e-07
1.66447e-12
-4.73665e-07
1.74947e-07
-7.84123e-13
-4.73943e-07
1.74675e-07
1.68207e-12
-4.74225e-07
1.744e-07
1.58055e-12
-4.7449e-07
1.74095e-07
-8.13717e-13
-4.74793e-07
1.73795e-07
-7.92785e-13
-4.75121e-07
1.73525e-07
-7.79482e-13
-4.75429e-07
1.73227e-07
-7.66156e-13
-4.75745e-07
1.72921e-07
-7.5279e-13
-4.76068e-07
1.72605e-07
-7.39479e-13
-4.76376e-07
1.72261e-07
-6.66584e-13
-4.76729e-07
1.71919e-07
1.38325e-12
-4.77103e-07
1.71606e-07
-7.05922e-13
-4.77465e-07
1.71257e-07
-6.29624e-13
-4.77837e-07
1.70899e-07
1.36064e-12
-4.78223e-07
1.7053e-07
1.27329e-12
-4.78617e-07
1.70148e-07
-5.98685e-13
-4.79004e-07
1.69728e-07
1.22769e-12
-4.79442e-07
1.69312e-07
-5.73621e-13
-4.79905e-07
1.68912e-07
1.22484e-12
-4.80367e-07
1.68478e-07
1.1436e-12
-4.80842e-07
1.68024e-07
-5.3582e-13
-4.81337e-07
1.67549e-07
1.09685e-12
-4.81833e-07
1.67035e-07
-5.5548e-13
-4.82386e-07
1.66509e-07
-5.36504e-13
-4.82978e-07
1.65996e-07
-5.22796e-13
-4.83576e-07
1.65436e-07
-5.0907e-13
-4.84203e-07
1.64847e-07
-4.5505e-13
-4.84864e-07
1.64228e-07
9.38648e-13
-4.85562e-07
1.63577e-07
-4.72271e-13
-4.86296e-07
1.62886e-07
-4.17167e-13
-4.87057e-07
1.62135e-07
8.59141e-13
-4.87902e-07
1.61354e-07
-4.30462e-13
-4.88813e-07
1.60556e-07
-3.79121e-13
-4.89765e-07
1.59684e-07
7.79189e-13
-4.90787e-07
1.5875e-07
-3.88415e-13
-4.91886e-07
1.57747e-07
-3.40888e-13
-4.93073e-07
1.56666e-07
6.98999e-13
-4.94343e-07
1.55478e-07
-3.46232e-13
-4.95762e-07
1.54202e-07
-3.28867e-13
-4.9733e-07
1.52848e-07
-3.1486e-13
-4.99034e-07
1.51343e-07
-2.76869e-13
-5.00921e-07
1.49686e-07
5.64758e-13
-5.03027e-07
1.47852e-07
-2.75459e-13
-5.05394e-07
1.45808e-07
-2.58642e-13
-5.08075e-07
1.43516e-07
-2.25345e-13
-5.11123e-07
1.40904e-07
4.75107e-13
-5.14685e-07
1.37943e-07
4.44788e-13
-5.18867e-07
1.34569e-07
4.02865e-13
-5.23811e-07
1.30615e-07
-1.68508e-13
-5.29787e-07
1.25949e-07
-6.78711e-14
-5.37164e-07
1.20363e-07
5.43663e-13
-5.4651e-07
1.13562e-07
-6.90729e-13
-5.58744e-07
1.05126e-07
-3.87458e-11
-5.75431e-07
9.44323e-08
-2.69661e-10
-5.99453e-07
8.06983e-08
-1.58724e-09
-6.36736e-07
6.36486e-08
-7.88384e-09
-6.99686e-07
4.90486e-08
-1.25349e-07
-8.35595e-07
7.85959e-08
-9.12607e-07
1.46119e-06
-8.24116e-07
4.11585e-07
-4.05843e-08
-4.20595e-08
1.33322e-06
5.75637e-09
2.59751e-08
2.62533e-07
-9.0491e-09
-2.90641e-08
1.13937e-06
-2.78524e-09
-1.79966e-08
2.90279e-07
-7.99796e-08
-3.80162e-08
9.14207e-07
3.10392e-08
-1.30668e-07
5.49378e-07
-2.41301e-08
-1.81571e-07
4.71793e-07
4.59557e-08
-8.01587e-08
9.72449e-07
-6.53731e-10
-1.39917e-07
2.26265e-07
-4.55824e-08
-1.32838e-07
7.40504e-07
2.22775e-08
-1.69356e-07
5.54811e-07
-2.1622e-08
-2.24134e-07
4.19612e-07
4.1863e-08
-1.02981e-07
8.49322e-07
3.80656e-09
-2.02705e-07
1.954e-07
4.37961e-09
-5.90146e-08
9.194e-07
-2.15378e-09
-1.46902e-07
2.42708e-07
-4.49468e-08
-1.31822e-07
7.29732e-07
1.33637e-08
-1.75405e-07
4.11109e-07
6.33274e-09
-1.70015e-07
5.60933e-07
6.41029e-09
-1.93025e-07
6.51271e-07
-2.39676e-08
-2.50151e-07
4.52818e-07
-1.05997e-08
-2.00709e-07
6.61718e-07
2.50498e-08
-2.2658e-07
4.30079e-07
3.01309e-09
-2.22473e-07
5.16735e-07
7.6041e-10
-1.95287e-07
3.43584e-07
-2.51535e-09
-1.63332e-07
5.63601e-07
6.35472e-09
-1.84881e-07
6.5926e-07
-2.27079e-08
-2.34744e-07
4.63489e-07
-9.1783e-09
-1.89722e-07
6.95191e-07
2.25465e-08
-2.00755e-07
4.4184e-07
2.83147e-09
-2.11073e-07
5.3651e-07
1.62635e-09
-1.87719e-07
4.57082e-07
-2.58355e-08
-2.56607e-07
4.01339e-07
3.08316e-08
-1.03184e-07
7.88753e-07
1.17645e-09
-2.58298e-07
2.28225e-07
-3.5824e-08
-1.55759e-07
7.10031e-07
2.05717e-08
-1.92011e-07
5.13022e-07
-1.7882e-08
-2.60439e-07
3.8883e-07
3.71513e-08
-1.03152e-07
8.59464e-07
-3.6165e-09
-2.289e-07
2.30944e-07
-3.14594e-08
-2.04626e-07
6.26596e-07
1.86966e-08
-2.47046e-07
3.84114e-07
3.95526e-09
-2.4973e-07
5.43506e-07
-1.57164e-09
-1.78485e-07
4.87783e-07
-2.0797e-08
-3.0935e-07
3.36591e-07
3.65453e-08
-1.32989e-07
7.92752e-07
4.90731e-09
-2.63319e-07
2.01312e-07
-1.65014e-09
-6.75135e-08
8.66243e-07
4.51893e-10
-2.03989e-07
2.22416e-07
-4.19199e-08
-1.31664e-07
7.17996e-07
1.53179e-08
-1.78746e-07
4.18034e-07
-1.6171e-09
-1.77613e-07
5.92056e-07
-4.62037e-09
-1.27454e-07
5.36163e-07
-2.49082e-08
-2.01679e-07
4.88831e-07
3.36163e-09
-1.87805e-07
7.18579e-07
2.69565e-08
-1.87824e-07
4.76604e-07
8.3675e-11
-1.93886e-07
5.57951e-07
3.3625e-09
-1.89572e-07
3.68504e-07
-6.53714e-10
-1.67219e-07
5.47238e-07
4.2048e-09
-1.82741e-07
6.54543e-07
-2.32786e-08
-2.25889e-07
4.64901e-07
-9.52361e-09
-1.78399e-07
7.04223e-07
2.09684e-08
-1.8931e-07
4.50593e-07
7.01523e-10
-2.02304e-07
5.73933e-07
2.04861e-10
-1.56754e-07
3.90921e-07
3.32594e-09
-1.56814e-07
5.6325e-07
6.61359e-09
-1.70424e-07
6.68145e-07
-2.13039e-08
-2.0753e-07
4.7965e-07
-5.20947e-09
-1.54883e-07
7.57616e-07
1.51808e-08
-1.7978e-07
4.716e-07
-1.83768e-08
-2.91136e-07
3.58802e-07
3.70078e-08
-1.09181e-07
8.28771e-07
3.76884e-09
-2.1639e-07
1.52697e-07
4.06803e-10
-6.68477e-08
8.77159e-07
-7.16551e-09
-1.58434e-07
2.57963e-07
-4.14886e-08
-8.63499e-08
8.4178e-07
1.78145e-08
-1.52776e-07
4.0671e-07
4.49426e-09
-1.66649e-07
5.41544e-07
4.25033e-09
-1.87618e-07
5.36375e-07
-9.02696e-11
-1.83126e-07
5.50289e-07
-5.18612e-09
-1.85764e-07
4.78263e-07
-1.58516e-10
-1.35535e-07
4.4105e-07
5.64882e-10
-1.9969e-07
5.65736e-07
-1.51622e-09
-1.63052e-07
5.00118e-07
-2.53506e-08
-2.15492e-07
4.68792e-07
9.21949e-09
-1.88288e-07
7.6681e-07
2.33137e-08
-2.27341e-07
5.51605e-07
-6.52988e-09
-1.72473e-07
4.85468e-07
-8.17947e-09
-1.27398e-07
3.91653e-07
5.34873e-09
-1.53287e-07
5.62573e-07
7.11548e-09
-1.60222e-07
5.69011e-07
-2.03371e-09
-1.37039e-07
5.3873e-07
-4.1944e-09
-1.02885e-07
5.32128e-07
-1.14585e-09
-6.95208e-08
5.40556e-07
1.84703e-09
-5.61901e-09
5.58277e-07
2.59648e-09
2.02139e-07
4.47636e-07
1.00449e-08
9.23259e-07
-2.89433e-07
3.51258e-07
6.69678e-06
-2.10963e-05
-2.48511e-05
3.32237e-06
-1.21362e-07
-3.27521e-08
5.98455e-07
4.09529e-09
6.72259e-07
-1.56516e-08
7.90738e-09
1.9136e-07
-5.31726e-07
-2.30017e-08
7.02449e-07
-1.39624e-08
-1.35357e-07
2.86479e-08
8.15472e-07
-1.44139e-07
-1.50536e-08
5.85458e-07
-2.21239e-07
-1.00429e-08
5.82954e-07
-2.98865e-07
9.10279e-14
6.07549e-07
-2.94648e-07
-2.10339e-13
6.10702e-07
-2.91867e-07
1.17919e-13
6.18494e-07
-2.8249e-07
1.11827e-08
4.70596e-07
-2.77228e-07
1.73199e-08
3.51308e-07
-4.59261e-07
-3.30887e-08
5.92095e-07
-1.90217e-09
-1.21429e-07
3.54645e-08
7.837e-07
-1.28467e-07
-9.52192e-10
3.38338e-07
-3.88492e-07
-3.63888e-08
5.9952e-07
8.4007e-10
-1.16644e-07
3.51039e-08
7.97953e-07
-1.27084e-07
-8.79796e-09
4.86992e-07
-1.69337e-07
-1.60783e-09
5.336e-07
-1.80489e-07
8.40895e-11
5.47654e-07
-1.8284e-07
2.07256e-10
5.49063e-07
-1.79594e-07
3.19126e-10
5.54168e-07
-1.72042e-07
3.94023e-10
5.5724e-07
-1.74416e-07
-1.94118e-10
5.63754e-07
-1.75985e-07
-6.07131e-10
5.72799e-07
-1.8267e-07
-6.9789e-10
5.65262e-07
-1.88651e-07
-5.39328e-10
5.65538e-07
-1.95087e-07
-1.38269e-10
5.5539e-07
-1.91753e-07
2.04842e-10
5.54297e-07
-1.7862e-07
7.93949e-10
5.57673e-07
-1.76811e-07
-2.32035e-10
5.69648e-07
-1.69504e-07
-2.61218e-10
5.92753e-07
-1.79624e-07
-1.75532e-09
5.54111e-07
-1.86631e-07
-4.90718e-10
5.41797e-07
-1.91594e-07
-7.16738e-11
5.58312e-07
-1.90411e-07
-1.64094e-09
5.70666e-07
-1.81771e-07
-3.34276e-09
5.55837e-07
-1.7945e-07
-4.56552e-09
5.24083e-07
-1.77557e-07
-4.31554e-09
4.86027e-07
-1.83529e-07
-1.90202e-09
4.79482e-07
-1.93968e-07
-1.60858e-10
4.80372e-07
-1.93e-07
3.09892e-09
4.4802e-07
-1.99649e-07
4.33282e-09
4.96709e-07
-2.63305e-07
-1.26406e-08
6.97724e-07
-1.86745e-07
1.12828e-08
3.5864e-07
-2.4646e-07
1.47799e-08
6.74366e-07
-1.54825e-07
-2.25285e-09
5.98764e-07
-1.70528e-07
-1.90601e-09
5.72878e-07
-1.84543e-07
-1.15741e-09
5.69327e-07
-1.87891e-07
-7.76504e-10
5.57825e-07
-1.8621e-07
-1.85363e-10
5.51593e-07
-1.83535e-07
-7.87675e-10
5.62272e-07
-1.78565e-07
-2.43055e-09
5.75204e-07
-1.79674e-07
-2.80095e-09
5.76396e-07
-1.88118e-07
-2.1012e-09
5.73711e-07
-2.07773e-07
-4.11107e-09
6.27999e-07
-2.29039e-07
-3.41092e-09
6.43517e-07
-2.58834e-07
8.31516e-13
6.41817e-07
-2.57419e-07
7.78243e-13
6.43999e-07
-2.54344e-07
2.42857e-09
5.96886e-07
-2.43926e-07
2.72829e-09
5.70542e-07
-2.17343e-07
-8.66849e-10
5.72238e-07
-2.09866e-07
2.42942e-09
5.38705e-07
-2.14904e-07
2.93044e-09
5.78048e-07
-2.06347e-07
1.42189e-10
6.01536e-07
-2.18959e-07
-1.16233e-11
6.01036e-07
-2.1636e-07
-7.81322e-12
6.02765e-07
-2.17128e-07
-8.05524e-11
6.07243e-07
-2.1676e-07
3.51913e-10
5.99074e-07
-2.06133e-07
1.40462e-09
4.38865e-07
-1.43023e-07
6.02346e-09
5.19251e-07
-1.77809e-07
4.26213e-09
5.61603e-07
-1.59457e-07
-1.11483e-09
5.54109e-07
-1.67003e-07
-2.63361e-09
5.59527e-07
-1.77404e-07
-5.10949e-09
5.9188e-07
-1.80833e-07
-4.37155e-09
4.39946e-07
-1.50533e-07
2.32237e-09
5.3817e-07
-1.98402e-07
2.72982e-09
5.54746e-07
-1.89292e-07
1.18425e-10
5.39909e-07
-1.90859e-07
-4.69226e-11
5.3167e-07
-1.8966e-07
-5.50163e-11
5.35373e-07
-1.87303e-07
-3.39077e-10
5.39143e-07
-1.87867e-07
-1.54263e-10
5.37652e-07
-1.84674e-07
-1.89278e-09
5.92856e-07
-1.83992e-07
-2.51878e-09
5.93197e-07
-1.94434e-07
-3.57276e-10
5.98289e-07
-1.95959e-07
1.51261e-10
5.87603e-07
-1.90832e-07
1.58829e-10
6.00544e-07
-1.86174e-07
5.5178e-10
5.89899e-07
-1.73429e-07
3.02721e-09
5.96541e-07
-1.55248e-07
2.97226e-09
5.8664e-07
-1.49488e-07
2.45666e-09
5.86835e-07
-1.32417e-07
5.22956e-10
6.18263e-07
-1.18007e-07
-2.77656e-09
6.40153e-07
-8.77035e-08
-2.02554e-09
6.75557e-07
-8.9017e-08
-1.22995e-08
6.20357e-07
-1.11735e-07
-3.44837e-09
5.75035e-07
-8.06476e-08
6.87699e-08
3.83633e-07
-1.49136e-07
-2.78647e-06
2.78635e-06
-1.21203e-06
-4.00426e-06
1.83521e-06
2.27957e-06
3.1852e-06
2.25909e-07
-2.25877e-06
7.4614e-07
4.14567e-06
2.07533e-06
-2.03912e-06
-2.02102e-06
2.12376e-06
-3.22831e-06
-2.52345e-06
1.69512e-06
3.67384e-06
2.8186e-06
-4.37114e-08
-2.706e-06
-2.78579e-06
2.78571e-06
-1.1661e-06
-3.95654e-06
1.00602e-06
3.90231e-06
2.90751e-06
-2.90719e-06
-1.11596e-06
2.41651e-06
-3.32819e-06
-3.09802e-06
-2.78814e-06
2.78789e-06
-1.27007e-06
-4.06575e-06
-7.36546e-07
3.35844e-06
-2.54889e-06
-5.13831e-06
3.14129e-06
3.73414e-06
1.09117e-06
-2.77983e-06
-2.05756e-06
5.4643e-07
4.49162e-06
2.05991e-06
6.7794e-07
3.95766e-06
2.12915e-06
-2.03026e-06
-8.38525e-07
3.0723e-06
-2.62384e-06
-4.99758e-06
3.26905e-06
3.00934e-06
1.90359e-06
-2.12781e-06
-2.78523e-06
2.78531e-06
-1.13094e-06
-3.92041e-06
7.39817e-07
4.36129e-06
2.09188e-06
-2.08834e-06
-1.0153e-06
2.24421e-06
-3.07209e-06
-3.2216e-06
2.83385e-06
3.75801e-06
1.26454e-06
-2.6501e-06
-2.79076e-06
2.79032e-06
-1.34039e-06
-4.14187e-06
-7.23775e-07
3.35892e-06
-2.58379e-06
-5.4767e-06
-2.78501e-06
2.7851e-06
-1.10266e-06
-3.89166e-06
6.17901e-07
4.06204e-06
1.95588e-06
-1.9392e-06
3.31546e-06
3.8365e-06
1.17451e-06
-2.94492e-06
-2.79541e-06
2.7945e-06
-1.42995e-06
-4.2416e-06
-2.13841e-06
2.40586e-06
-2.47934e-06
-3.53504e-06
1.87865e-06
3.29805e-06
3.03788e-06
-3.93021e-07
-3.21074e-06
9.05242e-07
4.14737e-06
2.15406e-06
-2.07514e-06
-2.78492e-06
2.78492e-06
-1.07923e-06
-3.86806e-06
2.86376e-06
4.23491e-06
1.18106e-06
-2.58929e-06
-5.52098e-07
3.70582e-06
-1.73046e-06
-2.42715e-06
-3.76408e-06
-2.02014e-06
6.03155e-07
4.003e-06
1.99496e-06
-2.28825e-08
1.39337e-06
-2.34272e-06
-3.99473e-06
-2.30141e-06
9.63102e-07
4.31025e-06
2.28607e-06
-2.8042e-06
2.80214e-06
-1.54895e-06
-4.37945e-06
2.60017e-06
4.27761e-06
1.22211e-06
-2.59122e-06
-2.78493e-06
2.78483e-06
-1.05943e-06
-3.84835e-06
1.83669e-06
3.60069e-06
3.58548e-06
-4.96984e-07
-3.20113e-06
-1.67688e-06
1.95222e-06
-1.52139e-06
-4.54207e-06
4.38876e-07
3.09704e-06
2.56279e-06
-2.73346e-06
-7.83206e-07
3.32355e-06
-2.56816e-06
-5.00157e-06
9.94946e-07
4.51211e-06
2.24353e-06
-2.28116e-06
-2.82176e-06
2.81687e-06
-1.71224e-06
-4.57952e-06
3.29524e-06
2.95568e-06
2.22445e-06
-2.13786e-06
2.78494e-06
-1.03768e-06
-3.82718e-06
-2.78488e-06
1.63845e-06
3.6061e-06
3.33538e-06
5.42166e-07
-2.63551e-06
-1.40543e-06
2.67107e-06
-2.78525e-06
-4.28325e-06
-2.07511e-06
9.26121e-08
4.10965e-06
2.09364e-06
-2.78718e-06
2.78703e-06
-1.23581e-06
-4.02937e-06
3.41109e-06
2.48829e-06
2.3343e-06
-2.26145e-06
-1.16104e-06
3.22885e-06
-2.49833e-06
-4.60679e-06
8.46624e-07
4.041e-06
2.37233e-06
-2.29628e-06
-2.06112e-06
6.57812e-07
3.41766e-06
-2.17181e-06
-4.05213e-06
1.11995e-06
4.69047e-06
2.19694e-06
-2.26757e-06
3.25855e-06
3.26049e-06
1.60025e-06
-1.92205e-06
-2.78608e-06
2.78587e-06
-1.18549e-06
-3.9766e-06
-2.77803e-07
1.34179e-06
4.78981e-06
1.44926e-06
-2.49586e-06
-6.65092e-07
3.37419e-06
-2.74355e-06
-5.20511e-06
8.29943e-07
4.3494e-06
2.25727e-06
-2.39253e-06
-2.11644e-06
4.59624e-07
3.61031e-06
-2.07362e-06
-4.17194e-06
-2.78554e-06
2.7855e-06
-1.14801e-06
-3.93792e-06
-2.85974e-06
2.84624e-06
-1.9392e-06
-4.88135e-06
2.64974e-06
5.3819e-06
9.75418e-07
-3.43489e-06
2.69928e-06
5.21726e-06
9.9019e-07
-3.44303e-06
2.59279e-06
5.24011e-06
1.66235e-06
-3.28003e-06
-2.78907e-06
2.78877e-06
-1.30226e-06
-4.10029e-06
7.68217e-07
3.79326e-06
2.4292e-06
-2.14475e-06
-1.66017e-06
2.43403e-07
2.64515e-06
-2.10575e-06
-4.17371e-06
-9.55634e-07
2.31458e-06
-3.23479e-06
-2.99528e-06
-2.17847e-06
1.42123e-06
4.84764e-06
2.18959e-06
-3.00261e-06
2.94243e-06
-2.39138e-06
-5.58459e-06
2.58457e-06
4.83799e-06
2.36557e-06
-2.61463e-06
2.79593e-06
-1.01569e-06
-3.79374e-06
-2.78734e-06
2.40521e-06
7.33335e-06
2.29813e-06
-3.41566e-06
-1.5207e-06
2.88104e-06
-2.97426e-06
-5.26328e-06
8.96722e-08
3.3688e-06
2.38615e-06
-2.67509e-06
-1.08811e-06
2.66757e-06
-2.56908e-06
-4.01338e-06
-2.72767e-06
1.1324e-06
4.84943e-06
1.90609e-06
6.10506e-07
3.00509e-06
-1.86776e-06
-3.04456e-06
-2.97862e-06
1.1643e-06
4.79272e-06
2.22203e-06
-2.92059e-06
2.89471e-06
5.58655e-06
7.72842e-07
-3.54139e-06
-2.78497e-06
2.78506e-06
-1.09089e-06
-3.8798e-06
2.75218e-06
5.43442e-06
9.02127e-07
-3.47514e-06
-2.78512e-06
2.78509e-06
-1.11869e-06
-3.9079e-06
-1.43654e-06
2.56174e-06
-3.19662e-06
-2.91062e-06
-1.95551e-06
6.65382e-07
4.10622e-06
1.96268e-06
-2.79875e-06
2.79756e-06
-1.48243e-06
-4.30158e-06
-2.79218e-06
2.79172e-06
-1.37436e-06
-4.17927e-06
3.17044e-06
3.27862e-06
1.66742e-06
-1.98673e-06
2.30465e-06
5.72857e-06
1.29981e-06
-3.21398e-06
-2.79628e-06
5.44723e-07
3.63267e-06
-2.1767e-06
-3.91743e-06
-1.93816e-06
6.28472e-07
4.01319e-06
1.92217e-06
2.32535e-06
4.52519e-06
3.45977e-06
-3.00596e-06
-9.84778e-07
2.71716e-06
-2.7913e-06
-3.90745e-06
1.84727e-06
5.2319e-06
4.5116e-06
-4.87412e-08
-3.72207e-06
3.29862e-06
-3.14598e-06
-7.26601e-06
-2.11379e-06
3.20714e-06
7.43756e-07
-2.16186e-06
-3.77416e-06
2.19603e-07
3.23301e-06
-1.87821e-06
-3.9733e-06
-4.62047e-06
1.96099e-06
5.33228e-06
5.57815e-06
1.10248e-07
-3.74756e-06
6.70018e-08
1.3477e-06
3.34404e-06
1.60877e-06
-2.03926e-06
1.91236e-06
5.49968e-06
2.56754e-06
-5.04936e-07
-3.97687e-06
-2.78484e-06
2.78488e-06
-1.05105e-06
-3.84011e-06
-2.1022e-06
2.05501e-06
-1.61278e-06
-3.82416e-06
1.00378e-06
4.44478e-06
2.2171e-06
-2.29284e-06
2.78467e-06
-1.02762e-06
-3.81697e-06
-2.78507e-06
2.18393e-06
5.11351e-06
3.27888e-06
-3.61297e-07
-3.93942e-06
-2.78493e-06
2.78494e-06
-1.06741e-06
-3.85628e-06
1.63203e-06
2.72647e-06
3.65704e-06
3.5119e-07
-2.44298e-06
-1.1869e-06
3.15815e-06
-2.40833e-06
-4.47825e-06
1.03415e-06
4.54439e-06
2.25635e-06
-2.2816e-06
-2.69032e-08
2.42447e-06
-1.78323e-06
-2.85866e-06
-2.49584e-06
-2.24938e-06
1.27193e-06
4.72502e-06
2.23266e-06
-2.78737e-06
2.78732e-06
-1.24879e-06
-4.04306e-06
3.33485e-06
3.06797e-06
1.45646e-06
-2.65641e-06
2.7702e-06
5.23745e-06
8.53943e-07
-3.48868e-06
-2.78689e-06
2.78672e-06
-1.22362e-06
-4.0165e-06
-2.19937e-06
8.40194e-07
4.35438e-06
2.09107e-06
4.46813e-08
2.51558e-06
-2.0528e-06
-2.61178e-06
-2.65595e-06
-1.1596e-06
2.48729e-06
-3.2237e-06
-3.04565e-06
7.40166e-07
4.10303e-06
2.02171e-06
-2.02689e-06
-2.78637e-06
2.78629e-06
-1.20095e-06
-3.99274e-06
1.93532e-06
3.27511e-06
3.11916e-06
-6.70825e-07
-2.90305e-06
-2.78544e-06
2.78528e-06
-1.13947e-06
-3.92915e-06
3.93398e-06
3.93552e-06
-1.99268e-06
-7.2646e-07
3.38699e-06
-2.71183e-06
-5.12585e-06
-2.099e-06
8.2011e-07
4.1147e-06
2.16135e-06
8.5793e-07
4.21096e-06
2.27635e-06
-2.35684e-06
-2.12987e-06
5.99212e-07
3.58915e-06
-2.13814e-06
-4.28335e-06
7.1951e-07
4.43437e-06
2.04989e-06
-2.081e-06
-1.07366e-06
2.64131e-06
-3.22234e-06
-3.34649e-06
-2.78516e-06
2.78504e-06
-1.11066e-06
-3.89978e-06
-2.28544e-06
1.93184e-06
-2.48491e-06
-3.36268e-06
2.64632e-06
3.36625e-06
2.00988e-06
-1.97162e-06
-2.03101e-06
5.08578e-07
3.28633e-06
2.40704e-06
1.02276e-06
3.61979e-06
2.94367e-06
-2.77512e-06
-1.18426e-06
2.55289e-06
-2.53076e-06
-4.01932e-06
3.47386e-06
3.45393e-06
9.08658e-07
-2.59317e-06
-2.78579e-06
2.78585e-06
-1.17552e-06
-3.96626e-06
-2.09131e-06
7.16046e-07
4.1521e-06
2.03241e-06
-1.27116e-06
3.15783e-06
-2.23147e-06
-4.823e-06
-2.42375e-06
5.24898e-07
3.30092e-06
-2.18323e-06
-4.10006e-06
3.73235e-07
3.90855e-06
2.10567e-06
-2.6199e-06
6.11783e-07
4.12231e-06
1.95407e-06
-1.98133e-06
-2.83602e-06
2.828e-06
-1.8097e-06
-4.70549e-06
-2.78553e-06
2.78547e-06
-1.15694e-06
-3.94705e-06
2.87811e-06
-2.12049e-06
-5.14518e-06
-2.90405e-06
-2.80943e-06
2.8066e-06
-1.60422e-06
-4.44574e-06
-2.78861e-06
2.78838e-06
-1.28547e-06
-4.08226e-06
-1.60718e-06
2.81247e-06
-2.84649e-06
-4.49821e-06
2.83845e-06
4.40212e-06
1.67945e-06
-2.56145e-06
3.3859e-06
3.34624e-06
1.31612e-06
-2.36815e-06
1.93664e-06
4.98716e-06
2.16435e-06
-5.32873e-07
-4.00044e-06
2.75431e-06
4.64009e-06
1.09804e-06
-2.58794e-06
-1.17155e-06
3.02217e-06
-2.29503e-06
-4.59902e-06
-2.14993e-06
6.5377e-07
4.23217e-06
2.32455e-06
2.60083e-06
3.15303e-06
2.00989e-06
-1.97037e-06
-2.57182e-06
2.30369e-06
-3.26892e-06
-2.1539e-06
-2.79367e-06
2.79282e-06
-1.40056e-06
-4.20844e-06
2.39044e-06
4.85893e-06
1.45385e-06
-3.33142e-06
1.97878e-06
3.93436e-06
1.88281e-06
2.09698e-07
-2.63082e-06
-2.78992e-06
2.78953e-06
-1.32048e-06
-4.12011e-06
-2.87941e-06
9.52714e-07
4.22322e-06
2.54379e-06
-1.92496e-06
2.07504e-06
-3.21371e-06
-2.66447e-06
-2.07555e-06
1.58759e-08
4.02574e-06
2.07351e-06
-3.47323e-06
2.83266e-06
6.28049e-06
4.14917e-06
-4.91e-07
3.47006e-06
-2.68796e-06
-4.06853e-06
-7.3514e-06
-1.90548e-06
1.86797e-06
4.36691e-05
-8.48417e-06
5.03789e-06
-3.88654e-06
-9.25741e-06
-1.2178e-06
-4.01034e-06
-2.79255e-06
2.79224e-06
-1.21176e-06
-4.01e-06
3.99838e-06
2.792e-06
-1.20618e-06
-4.00399e-06
-2.79825e-06
2.79783e-06
-1.20577e-06
-4.00956e-06
3.99817e-06
2.79745e-06
-1.20038e-06
-4.00359e-06
-2.80378e-06
2.80323e-06
-1.19983e-06
-4.00898e-06
3.9978e-06
2.80271e-06
-1.1946e-06
-4.00306e-06
-2.80914e-06
2.80846e-06
-1.19395e-06
-4.00827e-06
3.99731e-06
2.80783e-06
-1.18886e-06
-4.00241e-06
-2.81434e-06
2.81355e-06
-1.1881e-06
-4.00746e-06
3.9967e-06
2.81281e-06
-1.18318e-06
-4.00165e-06
-2.81937e-06
2.81848e-06
-1.18231e-06
-4.00654e-06
3.99598e-06
2.81764e-06
-1.17753e-06
-4.00078e-06
-2.82423e-06
2.82325e-06
-1.17658e-06
-4.00554e-06
-2.82527e-06
1.18718e-06
-1.1813e-06
-4.01139e-06
-2.83008e-06
2.82895e-06
-1.17549e-06
-4.01021e-06
3.99984e-06
2.82789e-06
-1.17093e-06
-4.00444e-06
-2.83473e-06
2.83351e-06
-1.16975e-06
-4.00897e-06
3.99881e-06
2.83238e-06
-1.16533e-06
-4.00327e-06
-2.83922e-06
2.83794e-06
-1.1641e-06
-4.00765e-06
3.99772e-06
2.83674e-06
-1.15981e-06
-4.00203e-06
-2.84356e-06
2.84223e-06
-1.15852e-06
-4.00627e-06
3.99656e-06
2.84097e-06
-1.15437e-06
-4.00074e-06
-2.84776e-06
2.84638e-06
-1.15302e-06
-4.00485e-06
3.99534e-06
2.84507e-06
-1.14901e-06
-3.9994e-06
-2.85182e-06
2.8504e-06
-1.14762e-06
-4.00338e-06
3.99409e-06
2.84905e-06
-1.14372e-06
-3.99802e-06
-2.85575e-06
2.85429e-06
-1.14231e-06
-4.00187e-06
3.99279e-06
2.85292e-06
-1.13853e-06
-3.99661e-06
-2.85957e-06
2.85807e-06
-1.13709e-06
-4.00034e-06
-2.86115e-06
1.14612e-06
-1.14077e-06
-4.00563e-06
-2.86485e-06
2.86325e-06
-1.13554e-06
-4.00398e-06
-2.86656e-06
1.14449e-06
-1.13912e-06
-4.00929e-06
-2.87017e-06
2.86845e-06
-1.13386e-06
-4.00752e-06
-2.872e-06
1.14272e-06
-1.13734e-06
-4.01284e-06
-2.87549e-06
2.87365e-06
-1.13207e-06
-4.01095e-06
-2.87745e-06
1.14084e-06
-1.13545e-06
-4.01628e-06
-2.88083e-06
2.87887e-06
-1.13017e-06
-4.01426e-06
-2.88291e-06
1.13883e-06
-1.13344e-06
-4.01959e-06
-2.88617e-06
2.88409e-06
-1.12815e-06
-4.01746e-06
-2.88836e-06
1.13669e-06
-1.13129e-06
-4.02279e-06
-2.89149e-06
2.8893e-06
-1.12603e-06
-4.02053e-06
-2.89381e-06
1.13442e-06
-1.12904e-06
-4.02585e-06
-2.89681e-06
2.8945e-06
-1.12379e-06
-4.02348e-06
-2.89925e-06
1.13203e-06
-1.12667e-06
-4.02877e-06
-2.9021e-06
2.89968e-06
-1.12144e-06
-4.02629e-06
-2.90466e-06
1.12952e-06
-1.12418e-06
-4.03155e-06
-2.90736e-06
2.90484e-06
-1.11899e-06
-4.02896e-06
-2.91003e-06
1.1269e-06
-1.12159e-06
-4.03419e-06
-2.91259e-06
2.90997e-06
-1.11643e-06
-4.03148e-06
4.02384e-06
2.90747e-06
-1.11394e-06
-4.0264e-06
-2.91505e-06
2.91246e-06
-1.11142e-06
-4.02882e-06
-2.91778e-06
1.11888e-06
-1.11377e-06
-4.03386e-06
-2.92008e-06
2.91741e-06
-1.10881e-06
-4.03111e-06
-2.92291e-06
1.11608e-06
-1.11102e-06
-4.0361e-06
-2.92507e-06
2.9223e-06
-1.10611e-06
-4.03325e-06
4.02622e-06
2.91967e-06
-1.10399e-06
-4.02842e-06
-2.92713e-06
2.92442e-06
-1.10135e-06
-4.03046e-06
-2.92999e-06
1.10817e-06
-1.10333e-06
-4.03524e-06
-2.93191e-06
2.92912e-06
-1.09862e-06
-4.03238e-06
4.02578e-06
2.92646e-06
-1.09672e-06
-4.02775e-06
-2.93374e-06
2.93102e-06
-1.09408e-06
-4.02958e-06
-2.93661e-06
1.10046e-06
-1.09584e-06
-4.03414e-06
-2.93831e-06
2.93551e-06
-1.09135e-06
-4.03127e-06
4.02509e-06
2.93285e-06
-1.08965e-06
-4.02685e-06
-2.93994e-06
2.93721e-06
-1.08699e-06
-4.02849e-06
4.02251e-06
2.93462e-06
-1.08536e-06
-4.0242e-06
-2.94148e-06
2.93885e-06
-1.08278e-06
-4.02578e-06
-2.94427e-06
1.08856e-06
-1.08429e-06
-4.02998e-06
-2.9457e-06
2.94299e-06
-1.08015e-06
-4.02722e-06
-2.94852e-06
1.08571e-06
-1.08152e-06
-4.03134e-06
-2.94982e-06
2.94706e-06
-1.07747e-06
-4.02851e-06
4.02315e-06
2.94444e-06
-1.07614e-06
-4.02453e-06
-2.95105e-06
2.94839e-06
-1.07355e-06
-4.02578e-06
-2.95385e-06
1.0787e-06
-1.07473e-06
-4.02969e-06
-2.95496e-06
2.95225e-06
-1.0709e-06
-4.02691e-06
4.02192e-06
2.94966e-06
-1.06974e-06
-4.02314e-06
-2.95602e-06
2.9534e-06
-1.06719e-06
-4.02423e-06
-2.95877e-06
1.07196e-06
-1.06821e-06
-4.02791e-06
-2.95971e-06
2.95704e-06
-1.06459e-06
-4.02519e-06
4.02058e-06
2.95451e-06
-1.06359e-06
-4.02163e-06
-2.96061e-06
2.95803e-06
-1.06109e-06
-4.02256e-06
-2.96329e-06
1.06548e-06
-1.06195e-06
-4.02604e-06
-2.96407e-06
2.96148e-06
-1.05855e-06
-4.02337e-06
4.01913e-06
2.95899e-06
-1.0577e-06
-4.02002e-06
-2.96483e-06
2.96232e-06
-1.05525e-06
-4.0208e-06
4.0167e-06
2.95992e-06
-1.05444e-06
-4.01757e-06
-2.96555e-06
2.96314e-06
-1.05208e-06
-4.01833e-06
-2.96808e-06
1.05598e-06
-1.05278e-06
-4.02147e-06
-2.9687e-06
2.96625e-06
-1.04969e-06
-4.01898e-06
4.01521e-06
2.96392e-06
-1.04901e-06
-4.01595e-06
-2.96928e-06
2.96693e-06
-1.04672e-06
-4.01657e-06
-2.97174e-06
1.05028e-06
-1.04729e-06
-4.01951e-06
-2.97221e-06
2.96985e-06
-1.04441e-06
-4.01708e-06
-2.97469e-06
1.04776e-06
-1.04486e-06
-4.01993e-06
-2.97506e-06
2.97268e-06
-1.04208e-06
-4.01749e-06
4.01426e-06
2.9704e-06
-1.04164e-06
-4.01475e-06
-2.9754e-06
2.97312e-06
-1.0394e-06
-4.01514e-06
-2.9778e-06
1.04243e-06
-1.03974e-06
-4.01778e-06
-2.97805e-06
2.97574e-06
-1.03716e-06
-4.01542e-06
4.01252e-06
2.97354e-06
-1.03683e-06
-4.01289e-06
-2.97827e-06
2.97607e-06
-1.03468e-06
-4.01316e-06
-2.98058e-06
1.03738e-06
-1.03489e-06
-4.01559e-06
-2.98071e-06
2.97848e-06
-1.03251e-06
-4.01332e-06
4.01073e-06
2.97636e-06
-1.03231e-06
-4.01099e-06
-2.98082e-06
2.97869e-06
-1.03022e-06
-4.01114e-06
4.00868e-06
2.97666e-06
-1.03004e-06
-4.00891e-06
-2.98305e-06
1.03261e-06
-1.03032e-06
-4.01338e-06
-2.98305e-06
2.98091e-06
-1.02814e-06
-4.01118e-06
-2.98529e-06
1.03033e-06
-1.02814e-06
-4.01333e-06
-2.9852e-06
2.98305e-06
-1.02605e-06
-4.01113e-06
-2.98745e-06
1.02803e-06
-1.02594e-06
-4.01317e-06
-2.98724e-06
2.98509e-06
-1.02393e-06
-4.01097e-06
-2.9895e-06
1.02573e-06
-1.02373e-06
-4.01292e-06
-2.9892e-06
2.98703e-06
-1.02182e-06
-4.0107e-06
-2.99146e-06
1.02341e-06