/*--------------------------------*- C++ -*----------------------------------*\
  =========                 |
  \\      /  F ield         | OpenFOAM: The Open Source CFD Toolbox
   \\    /   O peration     | Website:  https://openfoam.org
    \\  /    A nd           | Version:  6
     \\/     M anipulation  |
\*---------------------------------------------------------------------------*/
FoamFile
{
    version     2.0;
    format      ascii;
    class       volScalarField;
    location    "5184000";
    object      Cw;
}
// * * * * * * * * * * * * * * * * * * * * * * * * * * * * * * * * * * * * * //

dimensions      [1 -3 0 0 0 0 0];

internalField   nonuniform List<scalar> 
11831
(
0
0
0
0
0
0
0
0
0
0
0
0
0
0
0
0
0
0
0
0
0
0
0
0
0
0
0
0
0
0
0
0
0
0
0
0
0
0
0
0
0
0
0
0
0
0
0
0
0
0
0
0
0
0
0
0
0
0
0
0
0
0
0
0
0
0
0
0
0
0
0
0
0
0
0
0
0
0
0
0
0
0
0
0
0
0
0
0
0
0
0
0
0
0
0
0
0
0
0
0
0
0
0
0
0
0
0
0
0
0
0
0
0
0
0
0
0
0
0
0
0
0
0
0
0
0
0
0
0
0
0
0
0
0
0
0
0
0
0
0
0
0
0
0
0
0
0
0
0
0
0
0
0
0
0
0
0
0
0
0
0
0
0
0
0
0
0
0
0
0
0
0
0
0
0
0
0
0
0
0
0
0
0
0
0
0
0
0
0
0
0
0
0
0
0
0
0
0
0
0
0
0
0
0
0
0
0
0
0
0
0
0
0
0
0
0
0
0
0
0
0
0
0
0
0
0
0
0
0
0
0
0
0
0
0
0
0
0
0
0
0
0
0
0
0
0
0
0
0
0
0
0
0
0
0
0
0
0
0
0
0
0
0
0
0
0
0
0
0
0
0
0
0
0
0
0
0
0
0
0
0
0
0
0
0
0
0
0
0
0
0
0
0
0
0
0
0
0
0
0
0
0
0
0
0
0
0
0
0
0
0
0
0
0
0
0
0
0
0
0
0
0
0
0
0
0
0
0
0
0
0
0
0
0
0
0
0
0
0
0
0
0
0
0
0
0
0
0
0
0
0
0
0
0
0
0
0
0
0
0
0
0
0
0
0
0
0
0
0
0
0
0
0
0
0
0
0
0
0
0
0
0
0
0
0
0
0
0
0
0
0
0
0
0
0
0
0
0
0
0
-8.20856e-54
-9.42223e-27
1.83223e-24
7.99229e-53
-2.85944e-33
-7.43815e-54
5.16698e-19
-3.29021e-52
-1.92842e-55
-2.35344e-53
7.14236e-20
1.1507e-30
4.4193e-15
-1.46071e-52
-1.10886e-40
-1.13898e-54
4.4264e-38
-4.43428e-54
-6.21325e-15
2.24528e-56
-1.40167e-53
5.63316e-56
7.76141e-12
1.41866e-48
-9.31243e-59
1.09993e-55
-6.89165e-11
-1.43155e-42
-2.03328e-57
2.43627e-53
-6.14821e-55
2.31484e-09
6.42081e-57
2.15853e-47
-5.58773e-61
-7.09925e-09
7.16763e-59
-3.08958e-58
-3.02689e-56
-3.43791e-08
1.48365e-58
-3.90322e-52
5.47081e-64
-4.62567e-08
1.57591e-60
1.50026e-63
-6.03767e-58
-1.59558e-07
3.6222e-54
-3.96625e-23
5.92125e-53
-4.55638e-27
3.33539e-60
6.23046e-56
2.75659e-30
7.73167e-54
3.13877e-21
2.42389e-52
-6.20006e-34
4.73326e-53
4.64155e-54
1.64412e-65
2.61698e-37
-3.59613e-17
3.69429e-07
-6.7151e-56
-4.9212e-17
2.60779e-52
3.36235e-62
3.56412e-60
-1.35809e-68
7.89536e-07
2.59098e-62
-1.86119e-67
-4.0911e-60
1.7098e-08
-1.03467e-54
3.58244e-40
5.11333e-56
-8.90519e-46
-3.15396e-51
-7.64828e-57
1.26771e-43
-4.77372e-56
2.89063e-53
-1.80796e-13
1.45636e-59
-4.1395e-57
1.60877e-12
8.14635e-10
4.25178e-54
-1.79547e-10
-5.28839e-62
9.0714e-64
1.54947e-07
-9.4751e-71
8.49442e-64
1.94655e-61
1.09607e-70
2.76046e-07
7.24293e-61
1.9841e-59
7.02853e-58
-1.29155e-51
2.21096e-61
-2.31603e-65
1.02134e-58
-2.14078e-56
2.21807e-59
-2.73972e-54
4.008e-61
1.73228e-57
-1.13109e-55
1.02825e-24
-1.35651e-21
2.65071e-55
-4.84062e-35
3.59305e-54
-6.10147e-52
-1.57001e-23
-5.88943e-55
-1.69978e-27
3.37216e-55
-4.72401e-40
5.24918e-52
8.65959e-26
-3.58433e-28
-2.49714e-52
1.8461e-38
-3.65149e-54
1.47668e-55
2.54708e-57
2.95801e-45
2.01471e-07
-1.10927e-17
-2.71789e-52
3.0369e-32
-5.03793e-54
1.091e-15
1.03951e-52
3.39139e-55
-3.25915e-11
1.54284e-12
-1.83249e-64
1.34114e-54
-3.34108e-67
-4.20714e-62
2.60704e-55
4.9107e-59
8.49741e-07
7.84105e-08
-5.69649e-35
-3.43008e-07
4.63359e-53
5.35478e-32
-3.05908e-18
1.99425e-53
3.31957e-58
8.34741e-16
-5.81173e-14
-1.86517e-56
8.17884e-20
5.19404e-52
-5.32097e-07
-7.82117e-64
6.67256e-65
1.21687e-08
-4.68054e-72
-3.23565e-54
-4.73659e-53
-3.17232e-53
-1.80487e-52
6.01772e-54
8.48486e-53
1.32453e-51
7.95285e-51
1.4649e-50
8.38321e-50
5.42698e-50
3.17214e-49
-4.65423e-50
-4.11082e-49
1.84074e-48
-3.30792e-48
-1.30378e-47
-7.98478e-47
-1.01295e-46
-5.60291e-46
-3.5458e-46
-1.96401e-45
6.69902e-46
5.19452e-45
1.325e-44
8.14332e-44
8.26644e-44
4.56399e-43
2.54153e-43
1.35245e-42
2.47054e-42
6.51317e-42
1.32491e-41
2.47728e-41
7.23006e-41
9.29035e-41
4.03139e-40
3.09535e-40
2.21836e-39
8.26023e-40
1.20223e-38
2.73681e-40
6.44276e-38
-2.9725e-38
3.43154e-37
-3.6345e-37
1.76797e-36
-3.21567e-36
8.44185e-36
-2.42999e-35
-5.67392e-35
-3.25274e-34
-1.64844e-34
-1.85678e-33
-1.038e-33
-1.04352e-32
-7.7311e-33
-3.89686e-32
-5.75115e-32
-1.98942e-31
-4.4337e-32
-1.23646e-31
-9.96373e-31
-2.19405e-31
2.90029e-30
1.70492e-29
2.12699e-29
1.13829e-28
9.74898e-29
5.9308e-28
5.43684e-28
2.98823e-27
1.64165e-27
7.70038e-27
1.45212e-26
3.52377e-26
-9.61019e-28
-2.79934e-26
1.52532e-25
-2.60893e-25
-6.13125e-25
-3.30413e-24
-1.86841e-24
-1.74054e-23
-1.56899e-23
-7.61648e-23
-3.98699e-23
-1.76704e-22
-3.5799e-22
-7.65279e-22
-1.06991e-22
-1.7124e-22
-3.23377e-21
1.02113e-21
-1.29811e-20
1.39609e-20
3.4591e-20
1.7912e-19
1.06203e-19
9.03021e-19
8.18536e-19
3.83148e-18
4.44608e-18
1.76149e-17
1.20453e-17
5.29918e-17
3.09354e-17
7.94501e-17
2.2878e-16
3.51406e-16
9.68796e-16
1.52236e-15
4.02215e-15
6.45903e-15
1.63616e-14
2.68517e-14
6.51616e-14
1.0928e-13
-2.65672e-41
2.53874e-13
4.35035e-13
9.66823e-13
4.91583e-13
1.69275e-12
6.51124e-13
2.5971e-12
8.22622e-13
3.39498e-12
1.79025e-12
8.01654e-13
8.28705e-13
2.78505e-12
1.10431e-12
3.56968e-12
5.36371e-13
3.64716e-12
1.28421e-12
2.66216e-12
-1.74901e-13
4.03648e-12
1.28972e-12
6.35235e-14
3.85082e-12
1.09873e-12
-1.33392e-12
-4.32558e-12
3.08051e-12
7.77899e-13
-2.31681e-12
-8.17678e-12
2.02526e-12
4.46699e-13
-2.62722e-12
1.06101e-12
1.97836e-13
-1.03922e-11
-1.77587e-12
4.10869e-13
5.70094e-14
-7.76304e-12
8.30306e-14
-1.77689e-15
-1.66684e-13
-2.11327e-12
-3.42628e-14
-2.01182e-14
-4.69048e-15
-6.48772e-15
-2.23053e-15
-1.4933e-15
-6.10248e-16
-2.63772e-16
-1.23592e-16
-3.59073e-17
-1.97144e-17
-3.17469e-18
-2.39209e-18
9.04809e-20
-1.59774e-19
1.38575e-19
2.08378e-20
5.46223e-20
1.4296e-20
1.19491e-20
4.29638e-21
1.86592e-21
8.42348e-22
2.16269e-22
1.22406e-22
1.47836e-23
1.51059e-12
1.30161e-23
3.93891e-12
-1.28883e-11
-1.53202e-18
-3.54578e-24
-8.55488e-24
8.89364e-12
-6.37648e-11
2.1355e-12
-3.94183e-23
-8.61764e-24
1.58758e-11
-2.84402e-10
2.34832e-13
-1.17933e-09
-1.8853e-23
-2.19072e-24
-2.33529e-10
-4.57031e-09
-2.64517e-24
3.20279e-26
-1.53794e-09
-1.68181e-08
-7.36352e-09
-5.87667e-08
8.34396e-25
3.22742e-25
1.2445e-09
-3.07068e-08
-1.92559e-07
-1.17399e-07
-5.87844e-07
8.44353e-25
1.19415e-25
6.26973e-26
1.1136e-26
8.17452e-27
4.23455e-28
-4.15646e-07
-1.68097e-06
8.5932e-27
6.92457e-28
-1.38268e-06
-4.57131e-06
-1.21675e-28
-4.3092e-06
-1.18865e-05
1.58339e-29
-1.23912e-05
-2.97625e-05
-5.055e-29
-2.07132e-06
-3.22935e-05
-6.84081e-05
-6.48297e-14
-9.95181e-30
-7.94861e-05
-0.000133219
1.15405e-05
0.000178688
0.000715911
0.00218182
0.00326954
0.00855113
0.0090712
0.021473
0.0184141
0.0210858
0.048129
0.0488803
6.12372e-13
4.69531e-13
1.0855e-13
1.04421e-14
-1.91105e-15
-2.07943e-14
-5.80952e-15
-5.90091e-15
-1.54925e-15
-4.5599e-16
-8.36315e-17
1.04388e-16
3.8326e-17
3.67722e-17
1.02221e-17
4.04471e-18
8.09367e-19
-3.80957e-19
-1.39664e-19
-1.68691e-19
-4.48015e-20
-9.35799e-19
-2.00577e-20
-4.04036e-21
1.42931e-21
5.03745e-22
5.82268e-22
1.51654e-22
0.101814
0.106567
-1.01983e-29
5.81351e-23
1.14065e-23
-5.3818e-24
-1.75654e-24
2.81279e-22
-3.73082e-30
0.20251
0.218528
5.70789e-23
-1.50259e-24
-3.94421e-25
-1.32629e-30
-1.81636e-30
-7.12993e-32
2.19689e-31
0.377761
0.420941
-8.22168e-26
-1.39173e-26
-6.89933e-31
2.79277e-36
9.51922e-32
2.8287e-31
1.97353e-26
5.95458e-27
0.659821
0.483982
0.759269
3.38069e-27
9.34992e-28
3.70606e-32
4.69047e-32
1.22993e-26
1.40502e-33
-6.87441e-33
1.72971e-29
1.34772e-30
2.49319e-28
3.79354e-31
-9.88883e-30
-2.36003e-30
2.15103e-31
-5.6182e-31
-4.20404e-31
-1.02605e-31
-1.33352e-31
-2.48257e-32
-1.02705e-33
-2.89418e-34
-5.96243e-33
-7.81414e-35
1.79947e-34
4.35377e-35
-2.05162e-35
1.04451e-35
8.03256e-36
1.08132
1.28231
-5.27796e-36
1.96484e-36
1.18557e-37
-2.56712e-33
-6.49784e-33
1.66173
2.01518
1.30897
2.10895
1.11045
1.87918
-7.45329e-34
-7.27669e-34
-4.95542e-34
0.735458
3.22111e-38
-5.44459e-38
1.3261
3.30615e-36
1.92153e-34
2.95047
0.343487
5.92422e-35
1.19273e-34
8.08409e-34
1.42201e-34
1.57919e-33
5.95582e-36
-1.34466e-38
-9.74993e-39
2.08366e-24
6.85611e-35
1.80839e-33
0.694243
-1.63187e-13
-1.79544e-13
7.63536e-24
2.34698e-23
3.75629e-24
7.64731e-24
1.54723e-24
2.01941e-24
5.35569e-25
3.65761e-25
1.58158e-25
2.23227e-26
3.13969e-26
-3.32766e-26
3.91056e-27
-2.64305e-26
-1.08398e-27
-1.41113e-26
-1.23103e-27
-6.33103e-27
-7.13396e-28
-2.54659e-27
-3.31436e-28
-9.31123e-28
-1.36011e-28
-3.08419e-28
-5.03675e-29
-9.51806e-29
-1.72885e-29
-2.47425e-29
-5.34344e-30
-5.65622e-30
-2.63512e-30
-1.47971e-30
-9.20735e-31
-3.80478e-31
-8.89823e-32
-7.12299e-32
2.6553e-32
-9.56852e-33
2.24411e-32
1.42854e-35
1.04727e-32
7.7713e-34
4.05155e-33
3.08366e-32
1.00195e-32
6.47514e-32
1.93622e-32
3.11236e-33
5.61025e-33
3.19563e-32
8.78508e-33
1.57988e-33
2.35739e-33
1.22175e-32
3.14446e-33
6.18336e-34
7.92845e-34
-4.73666e-33
1.58725e-34
1.96028e-34
9.20228e-34
2.19853e-34
4.7563e-35
5.16374e-35
2.25226e-34
5.14199e-35
2.12708e-34
4.72086e-35
1.15695e-35
1.03191e-35
3.96373e-35
8.43283e-36
2.22275e-36
1.76954e-36
4.72032e-37
3.66389e-37
9.88744e-38
7.48856e-38
3.05029e-35
2.0437e-38
1.51142e-38
4.17006e-39
3.01338e-39
1.03168e-38
2.01202e-39
5.93674e-40
3.87969e-40
1.24119e-39
1.15614e-40
7.39869e-41
-1.10688e-29
2.22618e-41
1.39579e-41
-2.45894e-39
-1.50366e-40
-5.32618e-40
4.23964e-42
0.0763342
2.10214e-40
-6.00309e-13
-4.19185e-13
-1.95345e-34
7.52179e-34
0.222705
8.19534e-40
-1.68837e-12
-8.69851e-13
2.60558e-42
7.98772e-43
5.36226e-41
2.95987e-41
1.05145e-47
5.33032e-39
-0.0354719
-4.17654e-12
-1.56091e-12
-9.19374e-34
-2.64526e-33
7.72878e-42
-2.51895e-42
-8.7966e-12
-2.42306e-12
4.81412e-43
1.48923e-43
2.3398e-43
-0.00600354
0.492964
-4.94782e-20
-1.64934e-11
-2.92206e-12
-2.6646e-11
-1.93667e-12
6.62045e-13
2.72395e-12
1.05603e-12
2.23063e-12
8.3546e-12
3.76061e-12
5.08936e-13
4.58927e-13
-3.08672e-14
-1.89691e-13
-8.49108e-14
-1.66408e-13
-6.0367e-13
-2.82736e-14
-2.95942e-14
-8.16728e-16
4.2202e-15
2.31538e-15
5.04764e-15
8.83381e-16
8.40932e-16
1.83653e-17
-1.26633e-16
3.22496e-16
-5.9928e-17
-4.0402e-16
-6.79698e-16
-1.8712e-33
-1.14672e-32
-0.047432
4.40247e-44
0.0769498
0.915879
-1.64163e-26
2.74821e-44
-6.22303e-43
-4.91882e-43
0.243212
1.48315
8.1975e-45
6.55962e-44
-8.25825e-16
-2.37653e-15
-1.98503e-33
-7.63577e-35
-2.17174e-32
0.508232
2.12845
5.02087e-45
1.5109e-45
1.48451e-42
-5.04297e-07
-5.2448e-25
-4.53746e-38
-8.21638e-30
-3.30065e-39
-1.25283e-43
-1.01765e-44
-3.59129e-44
9.00162e-45
-3.70369e-11
3.44768e-44
0.851389
2.73864
-9.57122e-16
-5.25696e-15
2.1268e-34
7.36559e-35
-1.11945e-17
9.0834e-46
2.75706e-46
2.33645e-45
1.38909e-45
0.0637297
1.21774
3.19272
-9.37402e-18
1.23649e-11
-7.15164e-16
-6.30133e-15
3.31433e-18
1.41138e-34
1.28229e-35
1.53315
3.4147
5.50991
5.32787
6.96901
3.43669
1.62764e-46
4.98221e-47
8.01373e-47
3.70218e-46
1.93956e-47
1.46056e-47
-1.94104e-17
-1.37717e-17
4.71135
3.13726
4.12062e-36
-1.32711e-36
-5.97986e-17
-4.86214e-15
-3.82603e-13
3.53183e-39
8.91784e-48
2.23398e-47
2.63634e-48
5.88359e-48
-5.36832e-48
3.87992e-24
-0.0359007
-0.0221763
-0.0127957
-0.00344042
-0.00108444
0.000616355
0.000521032
0.000405222
0.000235492
7.44764e-05
2.67958e-05
-7.35674e-06
-6.50027e-06
-5.09703e-06
-2.77781e-06
-1.96612e-06
3.86395
2.61445
-5.34513e-36
-8.20703e-37
-1.66351e-35
7.97394e-16
-1.03224e-15
-3.87588e-14
-3.16445e-14
-1.73076e-13
-2.26172e-13
-3.79618e-13
-8.57296e-13
3.67797e-13
-1.57571e-12
1.21553e-11
4.34367e-12
8.09288e-11
6.91547e-11
2.96981e-10
3.8696e-10
5.47171e-10
1.09522e-09
-7.93905e-10
1.57359e-09
-3.00554e-09
-1.57537e-08
-6.71101e-09
-2.23538e-15
3.78123e-13
1.1121e-11
-7.45553e-07
-2.26571e-07
-7.98328e-18
-1.76666e-18
-3.36974e-32
-1.34805e-31
7.38463e-32
-4.02604e-31
2.84315e-30
6.59847e-31
3.19534e-29
3.00464e-29
4.57181e-44
1.58138e-48
4.71367e-49
-1.4668e-48
1.74939e-48
-7.36563e-49
-2.55659e-48
6.34869e-50
2.95461e-49
9.5877e-08
7.18724e-08
-8.70021e-08
-7.21376e-08
-1.61383e-18
-1.96102e-13
-8.82446e-36
-6.07037e-35
3.50482e-09
2.93103
2.00894
1.51637
7.266e-50
4.44097e-08
2.19224e-08
1.19367
1.21787e-50
-2.67842e-07
-3.20963e-07
2.7787e-49
8.34966e-50
-1.97732e-14
2.76001e-49
0.742553
8.15865e-08
3.24954e-09
3.83371e-10
1.00793e-08
-3.52414e-10
3.80271e-09
-3.29557e-10
-3.285e-10
-1.50425e-10
-2.19915e-10
-6.52243e-11
-1.24749e-10
-2.73066e-11
-6.34902e-11
-1.05503e-11
-2.69017e-11
-3.10369e-12
5.35071e-13
3.34748e-13
-7.39799e-13
1.76997e-13
1.06383e-13
4.08428e-14
8.65461e-14
1.55415e-14
-2.0104e-16
-3.88608e-16
-8.26909e-16
-2.9995e-16
3.58719e-14
-1.04937e-16
-2.63267e-17
6.23298e-18
3.13229e-18
-5.39744e-18
1.42903e-18
6.97289e-19
2.51972e-19
-7.27997e-19
-3.84157e-11
-1.51577e-21
-3.87044e-21
1.05114e-17
1.4357
0.863891
-7.35983e-36
-9.13021e-35
-4.3608e-07
-7.42405e-07
-3.61067e-08
6.07915e-51
4.83903e-50
1.53117e-49
1.46563e-50
2.40758e-50
4.26002e-51
-1.04639e-20
-3.46649e-21
-1.03853e-19
-1.87455e-19
0.951648
0.579114
2.13624e-38
-6.97608e-35
1.79423e-50
6.67118e-51
-1.15878e-21
-2.72683e-22
-1.14863e-21
-5.46276e-23
-3.72617e-22
-8.20125e-24
1.22221e-23
4.87225e-24
-1.21641e-22
0.00806315
0.0131496
0.00594705
0.00792803
0.00369423
0.00417046
0.00197952
0.00192016
0.00093683
0.000764814
0.000386866
0.000262901
5.08456e-46
-7.61046e-31
-2.64783e-31
-6.08899e-09
5.31764e-07
-9.21957e-07
-9.53191e-07
-1.88178e-06
-8.32551e-07
-2.4891e-06
-1.11471e-06
-4.06614e-06
-2.26895e-06
-5.14624e-06
2.38278e-06
-6.68301e-06
5.39745e-05
1.67679e-05
-1.51315e-43
0.00142484
0.000224756
0.000135116
1.89138e-24
6.44937e-25
-1.72212e-32
-5.46795e-32
8.35339e-51
-2.78853e-26
-1.44858e-26
-3.89543e-21
-3.46906e-51
1.19011e-51
1.38642e-31
-3.54483e-33
0.000138787
7.76403e-05
1.70695e-20
-8.4038e-21
0.000516121
0.000426598
-9.1488e-06
0.584588
0.3628
-4.47653e-37
-7.15e-38
-7.4085e-38
-2.55392e-39
-6.89929e-39
5.86458e-40
-3.34045e-40
2.02347e-40
3.54176e-41
3.54149e-41
1.44971e-41
3.45456e-42
3.21876e-42
2.07357e-43
3.72906e-43
-1.00849e-44
3.44213e-41
2.69594e-44
2.68815e-43
3.39702e-44
6.74895e-44
-5.63341e-45
-1.6258e-44
1.9611e-44
-1.13163e-44
-1.80188e-45
-8.27229e-46
4.15214e-45
-3.91376e-44
6.84687e-47
4.06945e-46
-1.63913e-45
-3.52296e-44
7.11001e-47
-1.78749e-19
-1.90516e-20
-1.1089e-19
6.30201e-47
1.35611e-35
1.40917e-35
-1.20756e-50
1.18786e-31
7.24018e-33
-3.76858e-33
-3.58954e-34
-1.17017e-33
-2.63073e-34
-1.8271e-34
-6.87244e-35
-1.96454e-35
-1.05579e-35
-1.3765e-36
-1.12016e-36
-5.9639e-39
-7.6634e-38
-5.87937e-37
2.24181e-38
-6.13943e-38
-2.27463e-37
-3.19829e-38
-6.32691e-38
-1.26037e-38
-9.55234e-39
-3.65575e-39
1.21107e-39
-5.7166e-40
2.31892e-39
-1.6975e-39
3.7625e-41
1.5323e-39
1.08328e-40
7.46761e-40
7.33401e-41
3.04406e-40
3.13037e-38
3.69322e-41
9.19244e-41
3.26772e-40
2.82386e-41
1.84608e-41
-1.80394e-41
6.59787e-43
6.63534e-33
-3.56837e-40
-1.80179e-40
-1.5435e-41
-7.66748e-41
-8.11812e-42
-2.71419e-41
-3.47166e-42
-7.73447e-42
-1.88159e-20
-3.95767e-20
-1.61597e-39
1.77869e-51
-1.22734e-42
-1.76275e-42
-4.09974e-42
4.34984e-43
2.76248e-48
-2.41374e-43
6.329e-43
8.80028e-42
3.68751e-42
-1.83983e-26
-5.88047e-27
-6.32468e-27
-1.80904e-27
-2.59744e-27
-5.57727e-28
-3.15505e-29
-2.49301e-30
1.88333e-29
5.38345e-30
5.37435e-31
1.49975e-30
6.48852e-31
1.53155e-31
4.1742e-31
3.42142e-32
-5.83889e-33
-2.08001e-33
7.67018e-33
-7.04465e-34
-3.79951e-34
-1.13269e-34
-2.28275e-34
-3.39522e-35
-1.50203e-37
-1.11984e-38
-3.20913e-45
-1.53753e-44
3.55207e-43
1.34371e-42
9.99644e-42
2.86045e-42
1.42116e-41
2.17112e-42
7.06487e-43
1.78068e-43
-2.4658e-42
-1.45409e-42
-6.90423e-44
-6.13705e-43
-5.63132e-42
-1.85754e-42
-2.24118e-43
-5.7545e-43
-7.49584e-44
-1.66769e-43
-1.03799e-42
-2.47126e-43
-4.47371e-44
-5.54729e-44
-1.43096e-43
-1.04763e-44
1.6411e-43
7.85456e-44
3.89545e-45
2.87822e-44
2.57453e-45
9.32248e-45
5.00093e-50
2.93692e-47
6.99927e-20
2.04365e-20
2.68239e-20
2.41324e-21
-2.13645e-22
-5.97784e-22
-1.66117e-21
-2.75646e-22
-2.13365e-22
-1.43319e-25
4.2302e-23
1.45729e-23
1.85195e-23
1.75048e-24
-1.1287e-25
1.30962e-23
-2.78604e-24
-1.71881e-24
-9.21712e-25
-6.76073e-24
-2.03884e-23
-7.17655e-35
-3.36942e-11
-4.51111e-06
-3.54935e-43
-2.50173e-45
-2.41996e-45
3.19947e-52
-4.16596e-50
1.28323e-49
2.12841e-46
0.33211
0.42978
0.211724
0.196651
0.115861
-6.17888e-48
1.23101e-47
-1.83497e-48
-6.73814e-24
-4.49264e-23
3.88384e-35
1.56423e-34
4.36133e-36
-1.467e-51
-4.465e-52
-5.75359e-26
6.68441e-37
1.85091e-37
1.02414e-45
2.80464e-45
0.000705358
0.000754799
7.75627e-43
0.000469775
4.31354e-05
6.90725e-05
1.94691e-05
1.19485e-37
1.94185e-38
3.68306e-38
2.81798e-39
1.06186e-39
-5.53709e-40
-3.16045e-39
-5.28597e-40
-1.88336e-40
-5.89613e-41
-3.13866e-41
-4.50429e-42
-3.52164e-42
-1.29954e-43
-2.75083e-43
4.0483e-44
-9.09078e-46
-0.00018722
3.02791e-53
5.59008e-54
-9.61526e-40
2.2467e-05
3.25369e-05
-1.14097e-20
-8.55183e-21
3.43409e-46
8.0129e-46
5.65214e-45
1.49984e-45
4.56908e-52
8.26621e-38
2.27589e-38
2.19985e-46
3.8745e-46
2.45335e-45
6.06077e-46
9.77037e-47
1.46736e-46
0.0946703
-9.52843e-45
-1.42296e-49
2.7756e-49
1.79318e-44
3.53052
1.53265e-11
3.14896e-11
1.89945e-15
2.04943e-15
2.21528e-15
-1.41901e-15
1.87392e-29
1.81922e-11
5.2096e-38
3.73105e-24
0.000269558
0.000669224
0.000126415
0.000446017
-3.02593e-45
2.23606e-42
3.01624e-05
2.10372e-52
5.70202e-53
3.685e-53
-6.25041e-47
-5.09894e-44
-4.5572e-45
-2.06676e-43
-3.25016e-44
-2.34057e-43
-3.82659e-44
-1.29252e-43
-2.29576e-44
-4.00116e-44
-9.25685e-45
2.94783e-44
2.16804e-43
3.18331e-43
1.99306e-42
1.63835e-42
9.64673e-42
2.72506e-43
7.58497e-43
1.34782e-43
1.83724e-43
4.3939e-44
-1.33092e-43
-1.59356e-44
-1.96962e-43
-1.27276e-42
-2.9933e-44
-9.90009e-43
-6.02768e-42
9.00734e-45
-3.333e-42
-1.87969e-41
-6.59882e-42
-3.51295e-41
-6.16867e-45
-1.2141e-42
-6.3798e-05
1.51514e-19
-1.92791e-08
1.10281e-05
1.45652e-05
5.12487e-06
6.21673e-06
2.26321e-06
2.53837e-06
6.24343e-42
0.215775
0.206343
3.07545e-05
0.000216718
-2.90742e-48
-2.25697e-49
3.12768e-35
3.24106e-34
3.24173e-34
1.67965e-33
-2.92371e-24
-4.02627e-23
3.32464e-25
-2.79392e-49
8.33094e-54
2.08916e-54
0.0566449
0.0640948
-4.91278e-49
1.39657e-44
-1.37594e-39
7.60051e-47
1.00689e-53
6.3978e-54
-0.000495606
-3.35618e-43
-1.43047e-43
9.53217e-07
0.000838886
0.000568246
5.77864e-29
-6.82459e-31
3.06201e-37
2.41007e-47
3.48572e-47
5.47707e-06
6.21841e-06
1.11066e-26
3.61411e-45
-4.45016e-33
4.59146e-33
-3.87239e-40
9.95441e-07
-0.00017019
-2.4315e-05
0.0924255
0.0713698
4.10978e-36
5.82463e-48
8.13269e-48
1.76206e-54
1.10107e-54
2.33188e-55
8.11753e-56
1.68716e-07
-1.11456e-06
-1.36897e-13
-4.47568e-21
3.24346e-21
2.01153e-41
0.0315961
-7.45849e-51
2.07134e-45
-1.63688e-44
0.0402073
-4.63783e-40
-1.16069e-05
1.13014e-24
2.8987e-25
2.7703e-50
0.0331706
-1.83885e-21
-9.64852e-07
-2.40718e-06
-8.67954e-07
5.44308e-31
4.5172e-41
1.38102e-48
1.86529e-48
-2.58807e-50
0.000937526
0.000863841
1.52053e-42
2.1059e-43
-4.61206e-43
3.84147e-07
-1.4064e-06
-4.75589e-06
-2.88777e-07
-7.23301e-05
1.04548e-47
2.32712e-48
2.38377e-45
4.56732e-45
3.8054e-48
-6.66075e-46
-1.16049e-44
0.0165194
7.47429e-51
2.65196e-54
-2.86137e-56
-7.45441e-57
3.3598e-56
-1.82006e-57
1.38078e-56
6.771e-55
7.56299e-43
-1.29747e-40
-1.14221e-41
3.76794e-07
4.44876e-16
3.60158e-16
1.14368e-30
-3.60412e-58
4.70316e-57
-3.59753e-58
4.20852e-49
5.10206e-49
3.05623e-55
1.87869e-55
6.46939e-55
-2.7001e-28
-2.8138e-28
-2.63509e-23
-7.20475e-32
-2.36217e-32
1.52038e-32
4.66834e-32
-6.14378e-21
-1.04278e-40
-1.79594e-40
-5.68043e-40
-8.16934e-40
-3.05283e-39
-3.06847e-39
-1.63792e-38
-8.34083e-39
-8.64749e-38
-1.90108e-38
-4.49235e-37
1.15157e-37
-2.27038e-36
1.9974e-36
-1.09603e-35
1.90271e-35
-4.73892e-35
1.48784e-34
-1.44739e-34
1.02972e-33
-3.65018e-34
6.75047e-33
6.99236e-33
4.09337e-32
4.26741e-32
2.35286e-31
1.60202e-31
8.79492e-31
1.32349e-30
4.77159e-30
2.70534e-30
1.42627e-29
2.55688e-29
7.42947e-29
3.70397e-29
1.88119e-28
8.5213e-29
4.22209e-28
9.43585e-28
2.06502e-27
8.47069e-28
4.03784e-27
9.96655e-27
1.89807e-26
7.08306e-27
3.2393e-26
8.79481e-26
1.45905e-25
4.01504e-25
6.46927e-25
2.16939e-25
9.32592e-25
2.82207e-24
3.93989e-24
1.21046e-23
1.63461e-23
2.89039e-25
-8.85997e-34
7.70719e-37
5.10188e-23
6.65518e-23
-1.23379e-36
1.96392e-23
7.69664e-23
2.65722e-22
2.95742e-22
7.95854e-23
2.95359e-22
1.11459e-21
1.07113e-21
4.11857e-21
3.79407e-21
1.48846e-20
1.31029e-20
5.25029e-20
4.40702e-20
1.80657e-19
1.44118e-19
2.2751e-39
6.05222e-19
3.477e-23
4.57492e-19
1.00462e-20
7.36055e-23
1.49034e-20
1.97165e-18
1.40695e-18
2.94475e-19
0.000409477
0.0269383
0.0120686
9.69694e-51
0.0160785
1.77524e-25
4.72705e-27
9.3471e-50
1.73186e-32
5.25478e-56
0.00813378
6.79161e-52
-9.49431e-46
-5.51618e-45
3.53833e-46
-4.08659e-41
-1.03655e-21
6.40802e-21
6.59259e-20
3.87433e-20
1.67947e-19
1.5447e-40
1.07474e-46
-3.18105e-07
8.63674e-07
1.3614e-35
1.58856e-06
-1.96559e-06
-8.08159e-06
-2.0058e-23
-7.86717e-05
3.83704e-06
1.24395e-47
2.49417e-51
6.12597e-52
3.32684e-44
3.72176e-43
-3.29409e-42
-3.63418e-41
2.63727e-42
-0.00144363
0.00036366
0.000595425
0.000699459
0.00033421
0.000525872
1.56051e-42
2.4052e-43
3.07328e-07
1.48542e-07
-6.47718e-40
3.95214
-1.60104e-05
-1.14108e-05
-4.34139e-06
2.31266e-25
2.70307e-44
3.64878e-44
3.06044e-45
5.42952e-45
2.73238e-46
7.8823e-46
9.2787e-48
1.11988e-46
-3.4932e-48
1.55765e-47
-1.43737e-48
2.0891e-48
-4.49434e-49
2.60255e-49
-2.21101e-48
-1.00381e-49
2.87907e-50
3.39556e-49
4.88016e-50
4.37899e-45
-1.93774e-50
2.52027e-49
3.81091e-50
5.65389e-31
1.51646e-05
-4.98989e-27
-2.06427e-26
7.97795e-28
1.69636e-27
5.89929e-28
1.10372e-13
-5.88585e-16
-1.15328e-12
9.41438e-12
8.34893e-52
0.372247
3.29041e-41
4.26907e-20
-2.24855e-20
8.4602e-19
1.57209e-19
4.18247e-18
1.08645e-55
3.57404e-55
-2.10827e-27
-8.14134e-28
-3.3236e-27
3.0385e-40
8.28576e-41
1.22137e-31
-4.87196e-59
1.53343e-57
0.0074173
1.73325e-27
-6.01207e-47
-6.39883e-46
-1.72561e-45
-3.54389e-46
0.00163839
4.51282e-27
1.25601e-17
-4.13739e-17
-5.48233e-06
1.27991e-05
6.04217e-06
-0.000559283
-2.27065e-06
-1.15526e-05
5.12585e-40
1.32982e-40
-6.11841e-31
-1.37794e-06
2.35835e-07
0.000147666
0.000292923
0.00731095
0.003767
0.00245703
-3.15796e-52
2.98348e-51
-1.15557e-52
7.62337e-33
1.15044e-31
-2.19403e-26
-2.32459e-27
-5.27094e-47
-2.91859e-46
-2.53471e-46
3.80813e-15
0.0162007
-2.79524e-11
7.99254e-39
-1.5194e-37
7.94824e-29
1.1227e-47
6.94127e-43
3.29156e-43
4.38702e-06
1.70518e-06
6.04524e-07
2.01768e-07
4.75673e-38
-1.35532e-19
-1.64831e-18
6.91864e-19
4.13373e-19
6.51787e-20
-1.7337e-27
3.28152e-51
7.71075e-52
4.18377e-60
5.13669e-58
3.23939e-57
9.6547e-58
-9.52611e-57
-3.09152e-57
-7.2649e-56
-1.68786e-56
-4.58358e-56
-4.60787e-57
6.60385e-55
2.06748e-55
1.29064e-54
3.92783e-55
-2.81085e-54
-8.20125e-55
-2.61775e-53
-7.00547e-54
-3.74589e-53
-9.61979e-54
6.50652e-53
1.70589e-53
4.28812e-52
1.80374e-51
1.90321e-51
3.88038e-52
-3.99667e-51
-1.19397e-51
-9.12301e-51
-4.6795e-50
1.21806e-50
9.12452e-51
4.58364e-49
1.93268e-48
2.2974e-48
5.18528e-49
-3.04315e-48
-6.91855e-49
-1.73688e-47
-7.96821e-47
-7.37119e-47
-1.56774e-47
7.47955e-47
3.44706e-46
1.95082e-45
4.07063e-46
1.71557e-45
8.25498e-45
-7.07919e-45
-1.53272e-45
-4.77648e-44
-2.31301e-43
-9.76534e-45
-2.09524e-43
-1.02586e-42
7.8787e-43
3.97495e-42
2.13469e-41
1.1093e-40
9.92897e-41
4.94979e-40
2.02231e-41
1.14838e-40
3.18505e-40
-4.67189e-39
-2.40846e-38
-7.42364e-38
-3.43439e-37
-3.53714e-37
-1.7097e-36
-7.09589e-38
-1.54185e-36
-7.66641e-36
5.1395e-36
2.88651e-35
5.67501e-40
-3.12273e-35
1.54479e-34
6.59765e-34
3.31857e-33
7.96833e-34
1.58626e-32
1.39428e-32
6.8148e-32
7.42874e-32
3.29183e-31
-5.1779e-32
-4.17831e-31
1.55271e-30
-2.84611e-30
-1.70882e-29
-8.79543e-29
-1.76347e-29
-4.37661e-28
-4.02122e-28
-1.8905e-27
-2.86813e-28
-4.67897e-28
-1.0168e-28
1.12005e-26
5.97876e-26
2.08036e-27
2.65976e-27
3.13513e-25
4.02885e-25
1.75079e-24
1.14289e-24
3.56881e-24
1.60329e-24
-4.64489e-24
-2.63805e-23
-6.08227e-23
-2.87811e-22
-1.41576e-22
-1.29814e-21
-1.03698e-21
-4.40447e-21
-5.60757e-21
-1.78222e-20
1.86188e-21
2.34432e-20
9.32148e-20
4.54147e-19
-1.23983e-23
-2.34597e-20
5.09899e-19
2.11354e-18
2.14881e-18
1.19399e-19
1.30971e-18
4.61595e-18
1.03123e-53
-8.31821e-47
1.46744e-22
-1.88092e-17
-2.34158e-17
-9.76641e-17
-1.60699e-17
-1.25048e-16
-2.04538e-18
-8.16282e-17
1.00733e-17
-1.02371e-17
4.07118e-18
1.70091e-17
4.15432e-17
1.35522e-17
6.27093e-17
-3.59414e-17
1.50265e-16
-1.24995e-15
-9.81144e-17
-7.65738e-15
-3.84703e-15
-2.1992e-14
-2.23682e-14
-3.24701e-14
-6.13459e-14
1.78948e-13
-8.50255e-14
1.6175e-12
4.962e-13
6.26694e-12
4.12047e-12
1.29353e-11
1.41727e-11
1.08101e-39
1.70416e-43
5.48593e-43
1.4997e-49
2.31917e-50
5.70826e-51
3.55592e-51
9.61348e-49
8.45859e-52
5.40679e-52
1.91873e-51
2.96143e-52
1.09943e-42
6.78764e-42
-4.53591e-30
5.41614e-30
8.74055e-28
1.32671e-07
5.28636e-08
5.91215e-56
1.85523e-55
7.69434e-40
1.91611e-40
-0.00289736
0.0398142
-1.79333e-28
5.03985e-40
2.9422e-27
4.94774e-27
3.05954e-27
1.23122e-41
-0.000227615
-4.728e-21
3.71335e-39
1.54349e-39
4.03177e-31
9.01161e-31
-5.19732e-48
2.14932e-48
-5.45018e-47
1.47298e-26
-1.48176e-26
2.00964e-16
4.68803e-05
0.000138772
-1.86725e-13
-1.38438e-51
-4.94567e-51
-6.04763e-33
-2.34937e-33
-4.01476e-26
-1.29026e-25
-5.86231e-27
-8.7857e-47
4.60785e-47
-2.61004e-53
2.84443e-07
1.72424e-07
-1.01788e-14
-0.00207548
-0.000163599
0.00312981
0.00164198
8.89873e-44
-2.93759e-45
-1.13412e-44
-5.8646e-12
2.67411e-11
1.48508e-45
1.04349e-45
7.64132e-47
5.15103e-46
3.58302e-19
-3.27246e-34
5.48478e-41
7.53546e-41
9.38851e-52
1.46504e-52
4.53478e-53
2.26894e-53
6.69731e-53
1.04649e-53
2.26733e-05
-2.83118e-18
-4.10441e-18
-1.02863e-18
-5.46649e-18
-1.30377e-19
-9.6726e-53
1.47532e-19
-2.09809e-06
-1.40655e-05
-4.25369e-08
-3.95192e-05
-5.8864e-05
-8.9415e-05
-0.000166028
-0.000120535
-0.000284062
0.000118405
-0.000255351
-0.000573273
-0.000790396
1.2226e-38
4.29178e-39
-1.18984e-18
-9.59992e-18
-1.84997e-54
-3.59614e-57
3.54201e-26
-1.36009e-25
4.97478e-49
3.12156e-48
3.60726e-07
6.31542e-08
-9.46769e-44
-3.37485e-42
-5.4743e-43
-4.13811e-41
-4.07984e-41
3.89629e-42
2.33766e-41
-3.28627e-44
-3.8116e-13
1.58049e-20
8.6011e-21
-4.62523e-50
-1.25823e-49
9.9091e-51
3.7969e-50
4.95312e-51
1.68826e-50
3.37249e-07
1.05809e-07
6.5044e-08
3.25021e-13
1.38579e-29
-1.27527e-29
-5.11184e-30
1.85977e-13
-1.59128e-29
-4.84303e-29
1.80226e-41
-5.53154e-22
-2.27583e-22
1.33296e-21
2.32966e-22
6.64789e-21
2.07537e-21
8.68152e-21
3.44665e-21
-1.95238e-20
6.59967e-22
1.34553e-21
2.1447e-22
4.52872e-22
6.75445e-23
1.30913e-22
2.37374e-23
1.83404e-23
-1.14481e-22
0.0600921
0.0216345
0.0274114
0.0073288
0.00620143
0.000675027
-0.000604968
-0.000764483
-0.00124127
0.00141748
-0.000465542
-0.000489545
-0.001622
-0.000396241
-0.00168395
-0.000224224
-0.00141574
-6.00039e-06
9.14467e-05
0.000124106
0.000181571
0.00012366
0.000292286
0.000106979
2.22493e-05
6.96237e-06
7.41121e-05
-4.48453e-06
-5.37513e-06
-4.89921e-06
-1.57408e-06
-8.66224e-07
2.09344e-08
1.37672e-07
3.67165e-05
-2.76752e-07
1.46096e-07
5.73688e-08
3.76056e-08
-2.0668e-07
3.3091e-09
-1.49303e-09
8.21849e-08
4.09252e-08
1.68772e-08
-4.60482e-22
-1.12316e-22
3.02407e-56
9.70341e-57
4.05009e-51
9.1072e-52
1.75049e-52
1.97952e-52
3.84227e-53
4.16063e-53
1.66243e-58
8.1606e-54
-1.78563e-09
-1.3985e-09
-2.8193e-09
-9.72961e-10
-3.55865e-53
-9.88388e-05
-1.48972e-10
-2.04415e-11
1.45776e-48
6.54856e-48
-4.79216e-45
-7.0963e-54
-1.70804e-30
-5.84594e-31
5.27774e-47
1.73914e-46
7.5156e-06
5.16148e-05
-7.17414e-06
3.56727e-23
4.41163e-24
-4.38006e-25
-1.63656e-25
-1.94448e-25
-5.38699e-26
1.89904e-49
4.4083e-47
-3.29262e-40
-5.39559e-40
-2.1347e-10
-2.65569e-11
2.62432e-11
4.42748e-11
-4.47836e-10
-8.3427e-11
-1.73654e-09
-1.07293e-14
-7.00169e-06
-1.18622e-26
-2.244e-27
3.06526e-40
4.57263e-40
-0.000923432
-0.00158418
-5.44522e-10
3.1449e-11
2.53185e-11
1.74397e-11
3.46238e-11
1.01058e-11
1.09616e-12
-2.1894e-14
5.05343e-12
-3.09302e-13
-2.26903e-13
-1.35662e-13
-2.69181e-13
-6.84648e-14
-5.20073e-15
7.44927e-16
-3.17281e-14
1.70861e-15
-1.16224e-14
1.31055e-15
-2.73475e-15
7.95099e-16
3.14861e-16
1.37443e-16
-2.76084e-18
-5.54472e-18
-2.05284e-16
-5.2746e-18
-2.40766e-18
-4.05187e-18
-1.00936e-18
-7.56498e-20
9.28953e-22
-4.13418e-19
1.00961e-20
1.4099e-20
3.36594e-07
2.52051e-07
1.04441e-39
2.50898e-40
3.8113e-38
9.94219e-39
-9.81086e-18
7.96152e-08
1.10781e-08
4.16706e-11
-2.80591e-26
-2.02966e-25
-1.67338e-51
-1.49533e-50
-0.00103198
-0.000542016
0.00126458
0.000676291
0.00076014
0.000318299
-3.08039e-33
-2.8207e-34
8.48278e-54
4.23902e-53
2.68492e-32
1.3641e-32
-0.000125885
-4.8787e-30
2.51744e-47
3.16564e-47
4.22773e-47
-5.46147e-47
2.86487e-53
9.03919e-56
-0.00080517
1.55228e-46
3.02685e-46
-1.61672e-19
5.8888e-11
-4.43165e-51
-4.70787e-10
0.00200281
1.12914e-54
2.63677e-07
1.91007e-07
1.06151e-32
-4.01023e-46
-0.00121369
-0.00273411
-0.00158957
-0.00379121
-0.00379959
-0.00645369
1.68499e-39
2.7458e-39
0.0929911
9.09149e-39
1.63111e-38
4.83849e-38
9.5134e-38
2.61727e-37
5.39664e-37
1.39193e-36
2.98836e-36
-9.35461e-20
-2.93462e-19
-9.68499e-19
-6.8296e-19
-1.3972e-18
1.59248e-17
3.81114e-18
3.30196e-17
1.11278e-16
4.47253e-17
6.98417e-17
-1.52835e-15
-5.28396e-15
-9.14201e-15
-2.81949e-14
-4.38158e-15
1.30489e-14
3.48985e-13
1.12062e-12
-2.75186e-15
9.78316e-18
1.73076e-12
5.01026e-12
5.44271e-13
3.31589e-12
1.2094e-11
-4.07772e-12
-2.93508e-11
2.6114e-11
7.28223e-36
1.60621e-35
3.75764e-35
8.47236e-35
1.86667e-34
4.37402e-34
8.23486e-34
1.52743e-31
-1.84738e-09
-6.43921e-51
-1.7382e-44
7.85114e-26
-3.27961e-54
-1.17044e-54
2.23856e-48
-4.53429e-47
-5.21193e-46
-2.22269e-46
8.52345e-49
9.68813e-49
-2.85378e-52
-2.44915e-47
-6.75768e-47
-2.54253e-46
-1.86556e-47
-1.20927e-47
1.69764e-47
-1.71642e-10
-5.07196e-10
1.46607e-48
9.0373e-48
-2.31513e-41
1.14576e-45
-2.18252e-45
6.88835e-54
1.18902e-41
6.98348e-41
3.21327e-08
2.02871e-08
5.1923e-12
-8.80093e-46
1.0113e-44
0.00229139
0.000131155
-0.00667897
2.23672e-22
7.37724e-22
1.78579e-27
6.21994e-28
4.34856e-08