/*--------------------------------*- C++ -*----------------------------------*\
  =========                 |
  \\      /  F ield         | OpenFOAM: The Open Source CFD Toolbox
   \\    /   O peration     | Website:  https://openfoam.org
    \\  /    A nd           | Version:  6
     \\/     M anipulation  |
\*---------------------------------------------------------------------------*/
FoamFile
{
    version     2.0;
    format      ascii;
    class       volScalarField;
    location    "20736000";
    object      Cw;
}
// * * * * * * * * * * * * * * * * * * * * * * * * * * * * * * * * * * * * * //

dimensions      [1 -3 0 0 0 0 0];

internalField   nonuniform List<scalar> 
11831
(
0
0
0
0
0
0
0
0
0
0
0
0
0
0
0
0
0
0
0
0
0
0
0
0
0
0
0
0
0
0
0
0
0
0
0
0
0
0
0
0
0
0
0
0
0
0
0
0
0
0
0
0
0
0
0
0
0
0
0
0
0
0
0
0
0
0
0
0
0
0
0
0
0
0
0
0
0
0
0
0
0
0
0
0
0
0
0
0
0
0
0
0
0
0
0
0
0
0
0
0
0
0
0
0
0
0
0
0
0
0
0
0
0
0
0
0
0
0
0
0
0
0
0
0
0
0
0
0
0
0
0
0
0
0
0
0
0
0
0
0
0
0
0
0
0
0
0
0
0
0
0
0
0
0
0
0
0
0
0
0
0
0
0
0
0
0
0
0
0
0
0
0
0
0
0
0
0
0
0
0
0
0
0
0
0
0
0
0
0
0
0
0
0
0
0
0
0
0
0
0
0
0
0
0
0
0
0
0
0
0
0
0
0
0
0
0
0
0
0
0
0
0
0
0
0
0
0
0
0
0
0
0
0
0
0
0
0
0
0
0
0
0
0
0
0
0
0
0
0
0
0
0
0
0
0
0
0
0
0
0
0
0
0
0
0
0
0
0
0
0
0
0
0
0
0
0
0
0
0
0
0
0
0
0
0
0
0
0
0
0
0
0
0
0
0
0
0
0
0
0
0
0
0
0
0
0
0
0
0
0
0
0
0
0
0
0
0
0
0
0
0
0
0
0
0
0
0
0
0
0
0
0
0
0
0
0
0
0
0
0
0
0
0
0
0
0
0
0
0
0
0
0
0
0
0
0
0
0
0
0
0
0
0
0
0
0
0
0
0
0
0
0
0
0
0
0
0
0
0
0
0
0
0
0
0
0
0
0
0
0
0
0
0
0
0
0
0
0
0
0
-1.26957e-17
-4.78142e-20
-1.8408e-19
-8.80216e-15
-2.84902e-22
-2.02919e-15
-6.12594e-17
-2.99776e-17
-1.95215e-20
-3.52766e-13
5.45655e-18
-1.4025e-22
1.07469e-15
-6.35849e-20
-2.79101e-25
4.75454e-14
-4.37283e-25
1.30964e-11
-5.55239e-16
-2.4715e-23
-1.06811e-22
6.03027e-14
2.08948e-14
-3.29903e-28
-2.64018e-26
-7.82178e-11
-5.48569e-15
-1.70681e-27
8.48036e-13
-3.74107e-31
-4.09292e-26
-7.2632e-14
2.53893e-11
8.14713e-31
4.03028e-29
1.6344e-15
-7.01507e-12
6.72664e-33
9.49126e-28
7.69296e-15
2.75216e-10
2.18177e-32
1.35604e-31
3.5034e-14
4.08051e-12
-8.2211e-36
3.14628e-31
1.55902e-13
7.9557e-19
5.91124e-19
5.30247e-14
1.76949e-20
1.98601e-10
-1.72918e-34
3.69137e-21
2.7631e-16
1.47126e-17
4.76408e-16
1.00548e-23
-1.3591e-12
4.07416e-15
-1.78063e-33
8.48154e-24
3.50359e-17
2.2013e-14
7.85529e-22
1.20688e-16
1.67621e-18
5.77375e-11
-4.284e-37
1.32076e-35
7.5026e-15
8.51409e-12
-2.81551e-39
-4.73281e-33
5.4252e-14
-5.62762e-13
2.91353e-26
-7.23305e-11
5.42994e-29
2.14741e-29
2.14293e-12
1.92544e-26
-2.76804e-13
2.01207e-21
-9.39221e-15
3.00796e-28
1.19485e-24
2.84979e-15
-1.02807e-14
3.54282e-24
4.27189e-14
5.30211e-37
1.35893e-11
2.80135e-15
-1.10912e-37
5.3682e-12
3.71074e-35
-4.45733e-39
1.44789e-14
8.40087e-35
-4.12614e-12
1.85604e-10
-3.54425e-31
7.88726e-12
2.40144e-36
-5.30112e-12
5.58777e-33
2.66041e-10
5.5414e-33
1.21144e-10
-7.38784e-35
3.42922e-20
4.81675e-19
-4.70573e-18
4.90056e-19
-3.39834e-24
2.72394e-12
-8.04419e-17
-1.08875e-18
-2.16846e-17
-5.17963e-20
4.47194e-14
1.27788e-25
-9.97982e-15
7.02138e-20
-3.11458e-21
1.60928e-13
1.14186e-25
1.48884e-11
-4.26847e-13
-2.51318e-29
4.59163e-28
1.26351e-13
-2.41022e-16
-1.71349e-19
6.70142e-22
3.09851e-16
1.40318e-15
4.28827e-20
-2.97512e-26
-1.40333e-13
-5.99918e-15
2.6598e-32
-5.36408e-15
-1.47024e-34
-7.30756e-30
1.31742e-21
1.56884e-31
1.27558e-14
2.7223e-14
-4.9711e-23
2.19066e-14
-1.64035e-12
9.68414e-23
4.60231e-17
6.52596e-22
1.57236e-25
-3.43684e-16
1.31764e-15
-2.89587e-23
1.93744e-17
-2.69026e-17
1.09146e-13
1.12391e-37
4.11936e-12
4.7978e-16
-6.79204e-39
-3.6121e-18
-1.67526e-17
-2.30111e-17
-3.56368e-17
-1.21744e-17
1.24886e-17
2.64758e-16
5.67557e-16
1.31884e-15
2.27833e-15
2.75651e-15
3.98745e-15
-6.55373e-16
-5.84099e-15
5.4482e-15
-1.87574e-14
-8.05475e-14
-1.58378e-13
-2.73756e-13
-4.4855e-13
-4.31914e-13
-5.66237e-13
7.19581e-13
2.1851e-12
8.56879e-12
1.6563e-11
2.86281e-11
4.63916e-11
4.74921e-11
6.38881e-11
7.23747e-11
7.70508e-11
1.10035e-10
6.51692e-11
1.56821e-10
-3.08501e-11
2.07053e-10
-2.87146e-10
2.51889e-10
-8.75823e-10
2.51174e-10
-2.10638e-09
4.14732e-11
-4.41435e-09
-5.36643e-10
-8.43636e-09
-1.8343e-09
-1.50824e-08
-4.47737e-09
-2.56085e-08
-4.42619e-08
-6.36561e-08
-4.12555e-08
-8.74148e-08
-6.23747e-08
-1.13381e-07
-8.67888e-08
-5.22131e-08
-1.38612e-07
5.3675e-08
8.10316e-07
1.5369e-06
2.80502e-07
2.68179e-06
5.84067e-06
8.5487e-06
1.20135e-05
1.5264e-05
1.17531e-05
1.8207e-05
1.55812e-05
2.08788e-05
6.29116e-06
-1.03054e-05
2.19951e-05
-4.32348e-05
-0.000208537
-0.000349281
-0.000101624
-0.00054792
-0.00109922
-0.00150109
-0.00081292
-0.00196476
-0.0026776
-0.00313981
-0.00315053
-0.0031631
-0.00348005
-0.00243017
0.00427479
0.0103558
-0.000679756
0.0196091
0.00258647
0.0328579
0.0826987
0.11659
0.0507948
0.15811
0.291357
0.36737
0.207008
0.450447
0.702325
0.818879
1.14942
0.537627
0.931789
0.625136
1.03519
0.708641
1.12334
0.783637
1.19138
0.845919
1.23606
0.892037
-3.68976e-10
1.25552
0.92005
1.25548
1.58017
0.930232
0.628322
0.644739
0.398501
0.416619
1.5217
1.77342
0.233321
1.65685
1.82374
0.249418
0.124925
1.65972
1.67195
0.137398
0.0601705
1.46854
1.40885
0.0687665
1.19929
1.07297
0.0252511
0.0305701
0.882032
0.726221
0.00855032
0.0115013
0.574746
0.430435
0.00172921
0.326624
0.219054
0.00318039
-0.000433106
0.158236
0.0924482
0.000190975
0.062635
0.0299566
-0.000785712
-0.000534103
0.018283
0.00564917
0.0109663
-5.10642e-05
0.00177924
-0.00203577
-0.00170716
-0.00213865
-0.00242038
-0.00174351
-0.00211824
-0.00113546
-0.00149679
-0.000588213
-0.000846916
-0.00022979
-0.000373356
-5.25064e-05
-0.000113335
1.17958e-05
-7.05079e-06
2.36542e-05
2.25202e-05
1.98908e-05
2.18094e-05
1.24854e-05
-0.00060986
1.57177e-05
-0.000543054
-0.000247703
-0.00081743
9.32119e-06
3.76249e-06
-0.000422441
8.71516e-05
-0.000379506
2.18677e-06
3.19338e-07
-0.000275201
0.000449313
-0.000121986
0.000806397
-3.98622e-08
-2.78146e-07
4.38408e-05
0.00113806
-2.67603e-07
-1.93513e-07
0.000212955
0.00142107
0.000369245
0.00164039
-1.47755e-07
-6.35867e-08
-5.14864e-05
0.000504887
0.00178687
0.00061162
0.00185884
-3.65422e-08
-6.05484e-09
-1.69039e-08
3.17482e-09
3.41659e-10
3.45543e-09
0.000685478
0.00186908
3.83036e-09
3.60137e-09
0.000724104
0.00179344
2.33049e-09
0.000735276
0.00165679
2.86448e-09
0.000710353
0.00147873
1.04904e-09
0.000265411
0.000656735
0.00127952
0.00241362
1.55107e-09
0.000584921
0.00107577
0.00215489
0.0017321
0.0032182
0.00248983
0.00431905
0.00322976
0.00525083
0.00380786
0.0058256
0.0023653
0.00270715
0.0016974
-0.000379399
-0.000178357
-0.000156199
-5.25349e-05
-3.62418e-05
-3.37896e-06
2.76601e-06
6.06248e-06
7.26369e-06
4.3474e-06
4.21013e-06
1.81381e-06
1.44737e-06
3.62581e-07
1.74955e-07
-5.71041e-08
-9.63713e-08
-7.36726e-08
-7.27004e-08
-3.46979e-08
-2.78212e-08
-7.13833e-08
-7.46451e-09
-3.90336e-09
7.37908e-10
1.4185e-09
1.10009e-09
1.06002e-09
0.00188872
0.00119438
2.94093e-10
4.79937e-10
3.63601e-10
7.92597e-11
3.06684e-11
5.63563e-10
5.61471e-10
0.00129442
0.000824228
2.25812e-05
-1.77514e-11
-2.39441e-11
1.17561e-11
-3.81362e-11
-4.48176e-11
-4.16837e-11
0.000872689
0.000558185
-1.43662e-11
-1.30541e-11
1.04686e-10
6.90741e-10
-2.17774e-11
-1.39424e-11
-4.67456e-12
-3.09588e-12
0.000578687
0.000860488
0.000371387
-2.56944e-13
1.64184e-13
-3.40653e-12
-9.71711e-13
-8.81045e-13
7.2613e-13
7.82057e-13
3.20176e-13
3.09847e-13
3.93283e-13
2.83719e-13
1.16789e-13
7.97727e-14
2.46764e-13
4.84596e-14
1.85837e-16
-5.76137e-15
2.36382e-14
-8.34799e-15
-5.39937e-15
-4.69907e-15
-8.63904e-15
-3.76041e-15
-9.82823e-16
-5.07482e-16
-2.74104e-15
-1.68983e-16
1.37559e-16
0.000376966
0.000243047
-1.75689e-15
1.40797e-16
7.88684e-17
5.39542e-13
3.97482e-13
0.000241082
0.00015657
0.000150537
9.72674e-05
8.92647e-05
5.80759e-05
1.336e-13
5.82521e-14
6.41871e-13
5.04962e-05
6.20319e-17
1.5782e-17
3.31113e-05
-4.46012e-15
-1.27947e-14
9.91297e-05
2.72438e-05
-1.0645e-14
-8.25471e-15
-1.27264e-14
-5.56764e-15
-1.10177e-14
-1.62785e-15
8.04389e-18
-1.5494e-18
2.50605e-10
-3.05659e-15
-8.01592e-15
1.80227e-05
0.0105098
0.000576392
1.81978e-05
2.13989e-05
1.95379e-05
1.58142e-05
1.95274e-05
4.06974e-06
1.81901e-05
-1.49366e-05
1.41567e-05
-4.28448e-05
5.80843e-06
-8.09332e-05
-7.11047e-06
-0.000128999
-2.53233e-05
-0.000185193
-4.92477e-05
-0.000245591
-7.84822e-05
-0.000305158
-0.000111328
-0.00035802
-0.000145321
-0.000397274
-0.000177088
-0.000418602
-0.000203317
-0.000417141
-0.000220735
-0.00039412
-7.8529e-05
-0.000227292
-0.000353195
-0.000222267
-0.00029703
-0.00020534
-0.000233621
-0.000180554
-0.000176219
-0.000148779
-0.000124654
-0.000115285
-7.44554e-05
0.000103306
0.000216439
0.0010776
0.00126815
0.000319796
0.00140806
0.0039307
0.00394426
0.00149105
0.00383437
0.00867319
0.00794564
0.00361853
0.00709653
-0.000107968
0.00332029
0.00618444
0.0118946
0.00992262
0.0052627
0.00809624
0.0139518
0.0109593
0.0173724
0.0131777
0.00843282
0.00979681
0.0141795
0.0102229
0.00714417
0.00724284
0.00511096
0.0050515
0.00358954
0.00346756
0.0138841
0.00247772
0.00234034
0.0016824
0.00155151
0.00201296
0.00129444
0.00100982
0.000817152
0.000968639
0.000645457
0.000506469
-0.00054152
0.000405187
0.000308232
-2.17272e-18
-1.41231e-18
-1.63372e-18
0.00024978
1.40242e-05
-5.61237e-19
0.00556505
-0.000368768
-1.38784e-15
-5.03276e-15
9.36472e-06
-7.59565e-19
0.0025883
-0.000782012
0.00018421
0.000151224
-3.61605e-19
-2.9026e-20
6.58818e-15
0.00168693
6.88998e-06
0.000914739
-0.000889316
-4.12068e-16
-2.63595e-15
9.6566e-21
2.61402e-20
5.118e-05
-0.000812113
0.000108127
8.99306e-05
0.000116346
4.64751e-06
6.12848e-06
-6.84496e-08
-0.000337063
-0.000656342
-0.00047123
-0.000494847
-0.000407028
-0.00027321
-0.000166839
-9.7635e-05
-0.000174628
-5.37933e-05
-1.81118e-05
-6.67532e-06
2.8782e-06
3.54164e-06
3.93471e-06
2.74566e-06
3.07873e-06
1.88486e-06
1.09863e-06
4.68373e-07
2.07483e-07
6.87865e-09
-2.77622e-08
-4.83789e-08
-3.36355e-08
-2.34217e-08
-1.32834e-08
-2.23182e-08
-5.22502e-09
-6.87064e-09
-1.36279e-08
6.38742e-17
-1.10041e-15
3.23086e-06
7.00622e-05
3.06981e-06
3.93284e-06
-0.000650684
5.25404e-05
2.31003e-20
9.90697e-21
1.9869e-06
2.47624e-06
4.14499e-05
8.414e-05
-3.20683e-09
-7.65408e-09
2.0465e-16
1.7252e-16
-2.73144e-16
1.26088e-06
1.53049e-06
3.01608e-05
2.40958e-05
0.000121461
0.00449244
-0.000281457
-6.50473e-09
-2.49821e-06
2.71961e-18
6.88989e-21
7.72811e-22
1.87381e-21
-3.81691e-22
0.00234186
-2.3744e-22
7.84991e-07
9.29096e-07
-1.27847e-09
-3.89884e-09
1.20053e-16
4.5646e-17
3.82353e-06
1.70137e-05
1.37659e-05
-3.88515e-22
-2.03689e-22
6.14509e-07
4.79727e-07
5.5434e-07
-0.00243379
0.146814
-3.79307e-10
-1.81333e-09
2.41584e-10
1.90826e-17
-6.75214e-19
2.87937e-07
3.25222e-07
5.96797e-07
3.43345e-07
6.05074e-07
1.87679e-07
9.43218e-06
7.72992e-06
1.04475e-05
-1.55981e-22
-3.07005e-23
5.9388e-06
-1.11591e-08
-7.43005e-10
1.94819e-07
1.06661e-07
-3.11496e-18
-2.60859e-18
-9.3986e-12
-7.29742e-10
0.0197432
3.10086e-10
4.26689e-06
7.45618e-06
3.31875e-06
-1.39946e-23
5.27639e-24
-1.02354e-07
4.63006e-06
2.04309e-06
2.81449e-06
1.15953e-06
1.52094e-06
5.75527e-07
7.04856e-07
2.34389e-07
2.51258e-07
6.07832e-08
4.50899e-08
-2.3818e-09
-2.05407e-08
-1.75258e-08
-2.81971e-08
8.52392e-09
1.08912e-07
5.97372e-08
-1.7465e-18
-6.32367e-19
-2.81549e-18
1.05375e-10
-2.29944e-10
-2.03735e-09
-9.37302e-10
-3.57464e-09
-1.95278e-09
-4.52558e-09
-2.76825e-09
-2.6351e-09
-2.63653e-09
5.1027e-09
6.52068e-10
1.98821e-08
7.98477e-09
4.02577e-08
1.94738e-08
5.74916e-08
3.1793e-08
6.40484e-08
3.9244e-08
9.04148e-08
2.70602e-08
2.92704e-08
4.22204e-06
1.27724
0.999473
-1.3778e-08
-1.89724e-08
-3.05214e-09
8.74658e-10
-4.2207e-15
-2.11042e-15
-8.98188e-15
-5.94159e-15
-1.18822e-14
-9.93723e-15
2.32261e-15
-9.43822e-15
3.32878e-11
2.31578e-06
1.8235e-06
5.44908e-24
-3.1066e-24
2.89722e-24
3.48044e-24
7.70673e-25
1.231e-24
-7.38358e-09
-8.64325e-09
-5.983e-08
-1.07081e-08
5.1474e-10
-9.76846e-10
-9.95243e-19
-2.09817e-18
2.19585e-08
6.00028e-08
3.30209e-08
3.15731e-08
1.51114e-26
-2.51467e-09
-2.23855e-09
1.74749e-08
4.27132e-25
-2.00436e-07
-8.00764e-08
1.23597e-06
9.85299e-07
3.00568e-06
1.29689e-25
1.60036e-08
-2.47698e-09
-3.23124e-10
3.86049e-11
-1.63242e-09
5.58223e-10
-5.74075e-10
1.23161e-09
6.76431e-10
9.21285e-10
1.90528e-09
1.14666e-09
2.62315e-09
1.28608e-09
3.33783e-09
1.27741e-09
3.90885e-09
1.1403e-09
2.08931e-10
5.88013e-11
8.70726e-10
-1.1216e-10
-1.42845e-10
-1.93224e-10
-3.02907e-10
-2.37727e-10
-9.51484e-11
-8.89072e-11
-2.14277e-11
-1.20219e-11
-4.73328e-10
1.98713e-12
5.79966e-12
3.63279e-12
4.29053e-12
8.92399e-12
4.50381e-12
1.35305e-12
1.0038e-12
1.07527e-11
3.69494e-10
7.59808e-14
-9.66719e-14
2.77503e-12
1.80072e-08
9.53758e-09
-4.46305e-19
-1.31963e-18
-3.75201e-07
-1.75362e-07
-7.63923e-07
-6.00035e-26
6.48771e-07
7.51668e-07
5.23643e-07
7.37561e-07
3.96678e-07
-1.22072e-13
-1.47136e-13
8.87068e-10
1.21417e-09
9.68842e-09
5.1374e-09
-1.48904e-19
-6.87798e-19
-5.89407e-26
5.19838e-07
-5.94788e-14
-5.39058e-14
-1.59668e-13
-4.19384e-14
-1.54486e-13
-2.59225e-14
1.04764e-15
6.10381e-15
-1.31524e-13
0.00810344
0.00852711
0.0119058
0.011922
0.016773
0.0157076
0.0223667
0.0194205
0.0280026
0.0223936
0.0327365
0.0239167
1.07549e-05
9.09717e-10
2.54543e-10
0.00364846
-5.32375e-07
-2.71418e-07
-7.67604e-08
-1.3186e-07
-3.09709e-08
-6.08928e-08
-1.75012e-07
-8.80987e-08
-2.66555e-08
-4.23927e-08
-1.03103e-07
-5.25373e-08
-9.13491e-08
-5.44814e-08
1.9611e-20
0.0150123
-3.38293e-08
-3.10246e-08
4.34523e-15
4.60808e-15
1.29968e-09
4.67046e-10
3.34954e-07
1.60005e-15
1.21556e-15
-5.80353e-14
-2.80092e-26
2.82853e-07
1.65125e-09
7.28281e-10
0.0355937
0.0236823
5.8577e-10
9.31871e-10
4.50522e-08
5.92976e-09
-2.61426e-08
5.14627e-09
2.73597e-09
-1.31972e-18
-8.90271e-20
-3.5681e-19
5.16193e-20
3.46539e-21
4.2622e-20
5.15379e-20
2.11162e-20
3.40221e-20
5.50753e-21
1.3062e-20
-1.08197e-22
2.33028e-21
-7.76158e-22
-7.12488e-22
-4.94874e-22
1.22742e-21
-6.74476e-22
5.52056e-22
-7.55664e-22
3.624e-21
-1.81482e-22
-7.22295e-23
-3.38445e-22
9.24292e-21
4.29443e-24
1.24431e-23
1.35251e-21
1.8075e-20
8.92673e-24
5.58494e-24
4.91193e-21
2.64807e-20
1.59333e-24
1.40438e-09
1.34047e-09
9.63329e-10
3.86649e-25
-1.36299e-20
-2.91546e-19
-3.37983e-26
1.88445e-09
9.99654e-10
2.04568e-10
3.58433e-10
1.49049e-11
7.12941e-11
-2.35333e-11
-1.09569e-11
-1.95212e-11
-1.83406e-11
-1.07743e-11
-1.2535e-11
-3.8461e-12
-5.58323e-12
-1.24483e-11
-7.70396e-13
-7.11009e-12
-1.11035e-11
-7.75812e-12
-8.00819e-12
-7.22885e-12
-1.53206e-12
-6.07684e-12
8.4457e-12
-3.9334e-12
2.17e-11
-4.27589e-12
-1.3002e-14
3.71457e-11
5.48593e-12
5.2529e-11
1.22613e-11
6.45894e-11
9.65732e-11
1.95816e-11
7.01819e-11
1.29894e-10
1.01396e-10
6.82546e-11
7.04719e-11
-1.69452e-12
1.21803e-09
-3.04525e-11
-1.64752e-10
3.08304e-11
-3.09481e-10
-1.93072e-11
-4.47641e-10
-7.59033e-11
-5.57351e-10
1.79095e-09
-8.9053e-10
-1.00558e-09
3.45727e-07
-1.33096e-10
-6.17378e-10
-1.48591e-09
-1.2774e-09
-1.78983e-25
-6.21261e-10
-9.76079e-10
-1.15901e-09
-5.18264e-10
1.46482e-16
-3.20032e-17
7.34396e-16
-1.62827e-16
2.54971e-16
-2.45323e-16
-1.1199e-16
-1.02944e-16
-2.58668e-17
-1.37871e-17
-8.38803e-17
-2.81064e-18
4.42945e-18
5.57892e-18
5.34191e-18
5.49259e-18
1.99524e-18
1.43182e-18
5.06621e-18
8.28267e-19
-4.87203e-20
-1.68364e-19
3.0173e-19
-2.21918e-19
-9.89647e-20
-8.47638e-20
1.03441e-20
3.08868e-20
-6.65535e-10
1.59263e-10
3.99909e-09
5.46211e-09
2.01294e-08
2.04036e-08
6.47629e-09
1.91917e-08
4.05275e-08
3.11268e-08
1.67395e-08
2.1798e-08
2.52248e-08
1.16594e-08
1.38285e-08
-6.17143e-10
8.21476e-09
-1.08913e-08
-8.46221e-08
-9.61839e-08
-1.87794e-08
-9.95905e-08
-3.11264e-07
-2.74386e-07
-6.41153e-07
-4.95591e-07
-2.29636e-07
-3.62176e-07
-1.82582e-07
-2.49663e-07
-3.8149e-26
3.8117e-24
3.29261e-10
1.11786e-10
3.8481e-11
-1.28734e-11
-1.42962e-11
-1.24479e-11
-7.97974e-12
-3.61293e-12
-1.58496e-12
-1.15025e-13
1.48455e-13
2.16568e-13
1.42094e-13
7.77303e-14
3.60154e-14
8.62155e-14
1.40196e-14
4.55063e-14
-4.81287e-16
3.72896e-15
2.04748e-14
-9.47968e-20
7.02543e-09
-4.78441e-08
1.03142e-11
1.73392e-20
3.13803e-20
1.90272e-07
-3.96581e-26
1.27883e-26
1.9731e-22
2.69855e-09
4.80001e-09
1.43993e-09
1.39568e-09
7.34231e-10
-1.617e-25
-9.70179e-26
-9.13266e-26
-2.78914e-16
7.76008e-15
2.99144e-20
-8.483e-20
2.91255e-20
-6.11388e-27
-3.0907e-27
3.39652e-16
-1.76542e-20
-7.37981e-21
-1.37767e-07
-1.62619e-07
1.43384e-07
5.24539e-08
-8.63454e-07
1.57093e-07
0.0355589
0.0517766
0.0224994
-1.63135e-13
2.25764e-13
2.69774e-13
1.70791e-13
1.36916e-13
4.24542e-14
2.02659e-14
-1.34901e-15
5.71593e-15
-3.63955e-15
-2.60435e-15
-2.41351e-15
-2.38127e-15
-1.00103e-15
-1.34858e-15
-2.53226e-16
2.32682e-20
0.000504034
6.79603e-28
8.00482e-28
-4.74389e-15
0.0524565
0.0736682
2.04921e-09
-5.23112e-09
-9.88527e-08
-9.8253e-08
-1.09356e-07
-4.35147e-08
2.17509e-07
2.7985e-21
3.83529e-21
-5.55026e-08
2.0665e-09
2.10036e-07
2.37323e-07
3.03539e-08
2.38943e-07
6.8235e-10
-4.65896e-16
-4.25237e-26
1.02735e-25
-3.0343e-20
1.03877e-07
1.62658e-08
2.67623e-09
1.03272e-10
0.447207
1.49605
-2.06213e-05
3.35234e-14
-0.000106546
4.65742e-22
-6.55019e-05
-4.91368e-09
1.66673e-08
-6.11006e-09
3.7936e-09
-7.095e-13
-1.22147e-06
0.0145055
1.51395e-07
1.03015e-07
7.97253e-08
-3.07543e-13
8.627e-12
1.82227e-11
-1.35848e-10
-5.21001e-11
-4.0871e-10
-2.05811e-10
-7.35977e-10
-4.09874e-10
-8.4632e-10
-5.20933e-10
-6.81141e-10
-8.52124e-10
1.19566e-09
3.54262e-09
1.20029e-08
2.40538e-08
5.67317e-09
2.24371e-08
1.18882e-08
3.00997e-08
1.76402e-08
2.96619e-08
1.79904e-08
1.87124e-08
2.13895e-08
1.3958e-08
-4.5078e-08
-1.26312e-07
9.74994e-09
-3.50908e-07
-7.21659e-07
-1.17885e-06
-2.15999e-06
-9.79382e-11
-6.22742e-07
0.000247452
-1.47579e-05
0.000159391
0.0759085
0.102611
0.107639
0.139964
0.149484
0.18696
-1.14763e-06
2.47299e-09
4.13626e-09
-4.70492e-09
-1.73508e-10
-4.60015e-26
-8.01352e-27
2.75326e-20
7.34633e-22
-4.43462e-19
-1.74745e-19
-1.19539e-15
2.02645e-15
-1.21619e-15
-2.873e-26
4.00888e-28
3.19705e-28
3.58834e-10
3.82049e-10
-3.75972e-26
-1.16188e-17
1.73053e-21
-6.16916e-08
5.487e-08
4.13126e-08
2.48126e-07
-1.52158e-06
-8.47968e-07
0.20323
1.54619e-08
5.17203e-09
1.65146e-13
3.09025e-13
4.22631e-22
4.56435e-08
2.22601e-07
0.0127664
0.0079274
1.39662e-05
9.85964e-07
-1.04256e-18
-5.84065e-19
1.46913e-21
0.24453
0.000220241
9.52996e-05
2.08843e-09
3.26592e-09
1.97045e-20
5.15042e-08
1.95862e-07
2.8757e-08
2.10688e-08
5.23227e-29
2.38603e-29
0.00631242
0.00374431
-0.00124973
1.55108e-09
-1.38333e-08
-1.84445e-06
1.86506e-10
2.35185e-27
-8.70682e-17
-6.74895e-16
3.19049e-10
2.95867e-22
-3.01107e-09
-7.03018e-16
-3.18279e-16
2.27646e-27
1.96909e-10
1.33202e-09
0.00261315
0.00145848
0.000835753
-7.70497e-12
-1.14922e-06
5.11669e-08
1.64687e-07
-2.44483e-27
2.74264e-08
1.08885e-08
-1.52889e-06
-9.12232e-07
3.6322e-20
0.269849
0.000421371
0.000788225
0.000154649
1.92957e-06
5.04419e-07
3.9141e-07
2.62263e-17
3.05864e-17
-9.02138e-10
-1.90749e-16
-8.15545e-16
9.59286e-11
1.34745e-27
3.56855e-08
-9.72493e-30
-9.707e-30
5.7465e-30
-8.87848e-30
-4.90243e-30
9.66614e-29
-6.23749e-16
1.19526e-22
-4.8865e-23
0.313022
9.75857e-11
5.71269e-11
2.40272e-09
-7.41674e-30
-9.60798e-30
-2.34109e-30
1.33221e-07
2.95223e-07
1.48321e-08
1.05764e-08
1.39998e-08
5.8288e-13
7.43615e-13
-8.49711e-13
-1.43658e-18
-1.05946e-18
-2.63567e-19
-6.4503e-19
-0.000563366
-1.42566e-06
-3.85199e-06
-2.71188e-06
-6.68081e-06
-4.96722e-06
-1.11505e-05
-8.77692e-06
-1.77214e-05
-1.50689e-05
-2.72637e-05
-2.5157e-05
-4.0899e-05
-4.04986e-05
-6.03135e-05
-6.18654e-05
-8.63707e-05
-9.11012e-05
-0.000114855
-0.00013059
-0.000141032
-0.000184466
-0.000157838
0.000115788
0.00038675
-0.000128116
0.000941775
0.00259274
0.00471057
0.00198623
0.00822407
0.0141398
0.0227819
0.0138603
0.0357548
0.050191
0.0748176
0.0931878
0.133087
0.109017
0.185996
0.206037
0.27753
0.254392
0.365949
0.366811
0.469053
0.471979
0.587933
0.596381
0.722483
0.670599
0.800064
0.870366
0.937669
1.02744
1.08106
0.70022
-0.000125126
-3.48827e-05
1.19052
1.22322
-1.80024e-05
1.04201
1.1421
1.3578
1.22544
0.9501
0.983564
1.28727
0.996285
1.32357
0.990399
1.33325
0.962284
1.31751
0.913829
1.27262
0.847765
-1.09258e-05
1.20147
1.06904
0.768165
0.60654
0.698904
1.63845
1.10848
0.679671
0.424
4.5119e-07
1.60902e-09
2.33567e-09
6.94731e-28
1.00706e-10
-1.19371e-16
-4.94969e-19
1.04153e-07
-9.58938e-20
7.52968e-09
4.89191e-11
1.27295e-28
-3.06819e-16
-8.11525e-16
1.7109e-17
-1.15002e-23
-7.62726e-10
-2.89846e-08
-7.10593e-08
-1.09289e-07
-1.56324e-07
-2.14474e-06
1.24831e-17
0.0045451
0.260682
-1.17004e-14
0.105966
0.000200387
0.000410993
4.79815e-14
8.86809e-05
3.18085e-05
1.04725e-06
3.84625e-07
2.28567e-07
-1.53921e-19
-6.7298e-19
-6.34972e-23
-1.09526e-23
-2.70723e-23
3.77158e-08
1.60402e-08
4.07119e-09
6.57967e-09
1.39728e-09
2.58451e-09
-1.304e-06
-8.11778e-07
0.322669
0.350407
4.74841e-20
2.85567e-06
-3.75994e-09
-1.76268e-09
-1.46931e-09
1.5108e-05
-5.30569e-07
-4.89084e-07
-2.9736e-07
-2.88998e-07
-1.60759e-07
-1.65897e-07
-8.42071e-08
-9.27674e-08
-4.29303e-08
-5.02343e-08
-2.12736e-08
-2.63682e-08
-1.02308e-08
-1.34069e-08
-6.01053e-09
-4.76798e-09
-6.62946e-09
-1.40799e-08
-7.37993e-09
-2.35081e-07
-2.15145e-09
-1.1988e-08
-6.63224e-09
-0.000238543
0.121581
-5.38884e-17
5.38442e-18
-4.25749e-17
-3.21948e-17
-1.68221e-17
-6.7893e-05
0.0049766
0.0156313
1.52279
8.60005e-17
7.55258e-05
0.000478967
-1.90789e-07
-8.83762e-08
0.357769
0.196884
0.58704
6.83943e-09
8.40018e-09
5.03138e-13
-4.99838e-13
7.10818e-13
1.28338e-06
2.68363e-06
-3.39251e-19
-6.28417e-30
-1.0767e-29
4.44253e-11
-1.66149e-17
2.98265e-18
-4.06687e-16
-6.82712e-16
8.82263e-19
0.023153
-5.26499e-09
2.97184e-11
1.26881e-11
3.21681e-05
8.82274e-06
6.71406e-06
8.55471e-09
8.78863e-05
0.000205639
1.51126e-05
1.57992e-05
3.34932e-19
-6.19075e-10
-3.60528e-10
4.16323e-10
9.60033e-10
5.11407e-11
2.47759e-11
1.11574e-09
-4.75644e-30
2.40755e-28
-2.93594e-29
-1.982e-20
-1.42214e-19
1.46739e-17
-3.16903e-17
-4.57733e-19
-4.44235e-16
-4.34736e-16
-1.88604e-08
0.00829901
0.0143618
4.7151e-20
1.15705e-11
-4.64318e-18
5.76721e-18
-2.24257e-23
-3.85331e-24
2.19663e-07
-1.47902e-06
0.252279
0.304993
2.79272e-13
9.46972e-08
1.06786e-06
1.64498
0.156676
0.0729171
-5.95202e-12
3.95898e-07
2.23175e-07
-5.12242e-30
-1.04665e-29
2.89279e-29
1.0853e-29
2.64794e-28
1.8736e-28
6.96741e-28
5.71841e-28
6.6375e-28
8.00768e-28
-5.03481e-27
-2.6634e-27
-2.70485e-26
-1.97034e-26
-5.78051e-26
-4.73543e-26
-2.38682e-26
-4.6982e-26
4.92153e-25
2.69874e-25
2.06033e-24
1.47558e-24
3.8548e-24
4.49276e-24
-4.17821e-24
6.321e-25
-5.86873e-23
-3.32165e-23
-1.74528e-22
-2.33729e-22
-2.88707e-22
-2.64768e-22
7.01691e-22
1.5534e-21
7.80178e-21
5.10741e-21
1.64407e-20
1.24131e-20
1.64545e-20
1.05685e-20
-1.24431e-19
-5.99877e-20
-5.21995e-19
-7.55073e-19
-1.27157e-18
-1.01839e-18
-5.57197e-19
7.14891e-19
1.37864e-17
7.28131e-18
4.30824e-17
6.1712e-17
2.9195e-17
8.82174e-17
1.00081e-16
-1.32988e-16
-3.73668e-16
-1.95038e-15
-3.04498e-15
-5.91562e-15
-7.41155e-15
-4.36931e-15
-5.79128e-15
-9.71956e-16
5.4398e-14
9.99894e-14
2.86302e-13
4.00346e-13
5.75902e-13
6.53383e-13
4.7844e-13
5.3418e-13
6.44948e-13
-1.52034e-12
-3.59351e-12
-4.38273e-15
3.56852e-13
-6.89513e-12
-2.21831e-11
-3.06483e-11
-1.17555e-11
-4.05269e-11
-5.73648e-11
-6.14066e-11
-5.0329e-11
-5.2837e-11
1.46624e-10
3.32104e-10
-1.70425e-11
6.08982e-10
1.87955e-09
2.51767e-09
9.87249e-10
3.18443e-09
4.71826e-09
4.91823e-09
-4.49946e-10
-7.38425e-09
1.47462e-09
-5.0574e-08
-7.90604e-08
-2.88991e-08
-1.87135e-08
-1.14249e-07
-2.39806e-07
-2.8277e-07
-3.79173e-07
-3.62257e-07
-1.54612e-07
1.85416e-07
7.89458e-07
4.15667e-06
6.24943e-06
1.69344e-06
8.68828e-06
1.82053e-05
2.11653e-05
1.13553e-05
2.32065e-05
3.04912e-05
2.67364e-05
-9.86777e-06
-4.97428e-05
2.49876e-06
1.40149e-05
-0.000263448
-0.000390317
-0.000105824
-0.000159938
-0.000961731
-0.00118812
-3.03922e-29
-6.13184e-19
-6.06954e-09
1.91242e-12
-5.15924e-13
4.55697e-12
-9.70875e-13
1.10561e-12
-7.55984e-13
-1.13062e-13
-4.67322e-13
-3.75183e-13
-3.11038e-13
-2.51585e-13
-2.98984e-13
-1.26919e-13
-1.84088e-13
8.88434e-15
-1.24969e-13
9.49066e-13
2.63428e-13
2.51989e-12
1.02414e-12
3.99041e-12
1.99648e-12
4.39356e-12
2.66187e-12
-1.05832e-13
1.54776e-12
-1.10436e-11
-3.05964e-12
-2.78029e-11
-1.10467e-11
-4.34851e-11
-2.0704e-11
-6.61469e-07
-1.04739e-18
-1.80706e-18
-7.71089e-09
-4.80936e-09
-3.56731e-09
-2.7569e-09
-1.09023e-08
-1.86035e-09
-1.50335e-09
-1.23935e-09
-8.77799e-10
-6.27537e-07
-6.17738e-07
-7.18071e-15
-9.62608e-15
-1.21808e-11
0.273964
0.361743
3.99105e-09
4.51885e-09
5.24731e-05
4.81582e-05
1.48743e-09
4.80441e-09
8.24529e-13
-3.50072e-06
-1.34113e-17
-1.44443e-17
1.03436e-17
8.84941e-09
7.90204e-05
-1.1472e-11
-3.15673e-06
-5.47245e-06
-6.32753e-19
-3.59451e-19
-3.66163e-19
-2.76918e-19
-1.26385e-16
-8.93063e-18
3.53368e-17
-1.0415e-13
8.97623e-11
3.30435e-10
-3.52331e-13
-2.9542e-29
3.79626e-29
5.65937e-21
1.05587e-20
1.15683e-17
2.66136e-19
8.3329e-18
-3.92256e-16
6.17595e-17
-1.76081e-29
-1.20838e-10
-1.14802e-11
8.97177e-13
6.82617e-10
5.22296e-10
2.5815e-11
1.2488e-11
-1.24741e-24
8.53005e-25
3.94445e-25
-5.04366e-11
-2.72173e-11
2.77646e-15
4.76652e-15
7.76114e-16
6.55733e-15
-1.51485e-07
-2.73567e-11
4.58214e-08
1.98738e-08
7.45585e-10
4.10056e-11
-5.44808e-10
-1.26764e-10
1.15677e-09
3.85902e-10
9.91898e-06
-1.71331e-12
-2.20545e-12
2.12106e-06
5.17272e-06
4.76282e-07
3.69444e-26
0.053302
3.38633e-05
9.78754e-05
-6.5258e-06
0.000354784
0.000182345
0.000516256
0.0002772
0.000665568
0.000368161
0.00078081
0.00044145
0.000198734
0.000244169
-6.11527e-06
-7.95664e-06
-0.00212604
-0.00230845
-4.99571e-26
4.5549e-28
-1.62341e-18
5.57951e-17
4.16628e-09
1.8865e-08
-1.91635e-06
-2.86647e-06
-1.78819e-18
1.63984e-18
-1.69497e-18
1.91529e-17
6.87141e-18
1.79035e-06
4.84053e-06
-1.03349e-15
-0.000928901
0.0185581
0.0280192
-1.88599e-26
-2.21283e-26
-4.29602e-27
-7.01368e-27
4.84802e-29
-6.55286e-28
0.224758
0.263417
0.36159
1.96263
-3.00748e-18
1.93339e-20
5.41397e-19
0.21242
-4.54441e-15
-7.73819e-15
8.7992e-11
-3.93733e-13
-3.99546e-13
-7.13212e-13
-8.91092e-13
-1.54931e-13
-1.10206e-12
4.97012e-12
1.88893e-12
2.38567e-11
-1.79691e-12
-7.83526e-13
-2.07014e-12
-2.71068e-12
-2.10863e-12
-4.01377e-12
3.42027e-12
-1.99652e-12
1.09704e-06
5.99458e-10
2.68796e-10
4.97799e-10
2.14374e-10
3.90228e-10
1.61414e-10
2.87941e-10
1.1427e-10
1.99118e-10
8.86326e-11
7.56379e-11
1.28268e-10
3.38982e-10
2.11919e-10
5.63488e-10
3.40841e-10
9.13934e-10
5.3308e-10
1.87759e-10
2.80494e-10
8.09525e-10
4.03972e-10
1.19106e-09
5.58104e-10
1.7057e-10
2.10252e-10
7.3327e-10
2.25673e-10
3.81707e-11
1.01279e-11
-1.8906e-11
-4.93351e-11
-2.47632e-11
-4.19108e-11
9.01039e-10
-9.34329e-11
-6.56165e-11
-2.38692e-11
-3.19792e-11
-1.32856e-11
-9.30399e-12
-9.62304e-12
-1.57724e-10
0.266244
0.354181
2.73322e-09
2.19595e-09
2.0869e-09
1.86725e-09
3.764e-07
1.98737e-07
1.19332e-07
9.92101e-08
6.04e-08
4.67691e-08
-9.50006e-30
2.89049e-08
-1.56773e-12
-4.0935e-13
-7.99287e-12
1.82407e-12
3.3157e-28
4.64754e-11
1.58682e-12
2.76157e-12
-7.14242e-20
-2.31141e-20
4.28977e-25
-2.87355e-29
3.64334e-19
3.80822e-19
1.64518e-15
7.66025e-15
-1.99846e-12
1.01285e-10
-1.00945e-10
-4.35225e-12
-1.74153e-12
-4.26017e-13
-2.17209e-13
4.48447e-14
8.48139e-14
2.36576e-25
1.20807e-24
6.59521e-17
3.76377e-17
-1.77528e-11
-1.98299e-11
-1.31412e-11
-1.39549e-11
1.15193e-11
-2.23732e-12
6.37822e-11
7.58188e-12
0.003555
5.22049e-14
4.97509e-14
8.39832e-08
4.14964e-08
0.000104573
0.000131994
5.39305e-12
4.29649e-12
1.59555e-12
1.99465e-12
6.0584e-12
2.16991e-12
4.35092e-13
2.59299e-13
1.97198e-12
-5.34442e-14
-1.91175e-13
-3.44182e-13
-5.26559e-13
-5.12219e-13
-1.92833e-13
-2.2112e-13
-6.8684e-13
-2.13071e-13
-8.23422e-13
-1.71309e-13
-8.22628e-13
-9.12761e-14
2.30305e-14
6.57813e-14
3.37665e-14
4.38749e-14
-7.09569e-13
1.40555e-14
1.27109e-14
5.03964e-14
9.55121e-15
2.81548e-16
-1.70645e-15
4.23717e-15
-3.83448e-15
-1.77429e-15
-1.07595e-05
-2.07368e-05
0.000130644
0.000111439
-9.82411e-06
-1.0821e-05
1.29022e-14
1.19849e-11
4.33095e-11
-7.53768e-12
6.9704e-18
6.706e-18
-2.14546e-29
-2.14981e-29
3.04753e-10
2.38618e-10
1.29595e-11
6.28128e-12
5.66116e-12
2.83379e-12
6.12135e-21
2.84731e-21
2.07984e-08
3.24398e-08
1.12929e-19
7.81263e-20
2.74903e-11
2.87549e-19
2.52297e-15
7.62888e-15
1.16012e-14
7.05846e-15
2.34187e-09
2.16564e-09
3.55626e-10
1.47268e-24
2.96271e-24
-2.18684e-15
-4.35302e-12
1.03894e-15
1.81971e-11
2.48881e-11
9.63801e-09
-1.09833e-10
-3.41117e-11
-1.3842e-14
-6.11496e-08
5.35717e-05
6.97259e-05
0.000151624
8.18808e-05
3.59604e-05
4.32887e-05
1.48993e-07
8.16359e-08
0.000718736
2.5538e-07
1.52156e-07
4.15658e-07
2.71344e-07
6.43881e-07
4.66516e-07
9.6154e-07
7.71893e-07
2.84931e-11
7.0952e-11
6.50003e-11
8.81282e-11
2.95936e-11
-2.51769e-10
-6.57329e-11
-1.35696e-09
-1.6628e-09
-4.48791e-09
-4.28062e-09
-7.72449e-09
-5.0383e-09
2.14394e-09
1.10109e-08
6.28879e-08
7.73402e-08
2.20428e-07
2.16561e-07
-5.91086e-09
-9.52276e-10
4.19658e-07
3.4596e-07
4.82889e-07
1.93327e-07
2.35921e-07
5.76354e-08
-2.34567e-07
1.12925e-07
1.39446e-06
1.2169e-06
1.98158e-06
1.82479e-06
2.59908e-06
2.64053e-06
3.20887e-06
-6.54638e-19
-2.05829e-12
-1.33511e-19
4.61332e-25
6.52475e-18
-6.40837e-30
-1.61767e-30
6.21373e-15
2.28256e-16
-3.66489e-14
-6.09343e-14
8.30524e-21
1.17893e-20
3.00773e-28
-8.53809e-15
-8.13116e-14
-2.31002e-13
-2.13099e-13
-9.23553e-14
-1.65662e-13
-1.78556e-06
-2.27035e-06
6.04396e-08
1.44799e-07
3.61379e-17
2.19162e-24
-9.77377e-24
-3.07466e-10
1.14916e-05
2.41189e-05
0.302209
0.41974
-6.27779e-11
-4.05476e-19
1.54542e-14
0.000850163
8.89325e-05
4.78372e-05
0.00356314
0.00743569
1.71583e-14
1.15318e-14
0.204477
-2.23717e-18
7.87769e-06
1.21483e-05
9.03692e-06
-1.30848e-12
-2.22678e-12
-3.74905e-09
3.66914e-06
3.55353e-06
0.0112352
0.0372131
-8.78402e-27
0.245871
0.330994
0.461512
0.000148731
-1.48329e-05
-1.38989e-05
9.7137e-10
9.29366e-10
-5.37193e-15
-0.00315866
-0.00305502
-0.00308085
-0.00239734
-1.69544e-27
-4.31102e-12
-1.59609e-06
-1.18165e-06
-2.0184e-06
-3.88456e-06
4.26647e-05
9.24702e-05