/*--------------------------------*- C++ -*----------------------------------*\
  =========                 |
  \\      /  F ield         | OpenFOAM: The Open Source CFD Toolbox
   \\    /   O peration     | Website:  https://openfoam.org
    \\  /    A nd           | Version:  6
     \\/     M anipulation  |
\*---------------------------------------------------------------------------*/
FoamFile
{
    version     2.0;
    format      ascii;
    class       volVectorField;
    location    "0";
    object      Uw;
}
// * * * * * * * * * * * * * * * * * * * * * * * * * * * * * * * * * * * * * //

dimensions      [0 1 -1 0 0 0 0];

internalField   nonuniform List<vector> 
100
(
(5.78703e-06 0 0)
(1.15741e-05 0 0)
(1.15741e-05 0 0)
(1.15741e-05 0 0)
(1.15741e-05 0 0)
(1.15741e-05 0 0)
(1.15741e-05 0 0)
(1.15741e-05 0 0)
(1.15741e-05 0 0)
(1.15741e-05 0 0)
(1.15741e-05 0 0)
(1.15741e-05 0 0)
(1.15741e-05 0 0)
(1.15741e-05 0 0)
(1.15741e-05 0 0)
(1.15741e-05 0 0)
(1.15741e-05 0 0)
(1.15741e-05 0 0)
(1.15741e-05 0 0)
(1.15741e-05 0 0)
(1.15741e-05 0 0)
(1.15741e-05 0 0)
(1.15741e-05 0 0)
(1.15741e-05 0 0)
(1.15741e-05 0 0)
(1.15741e-05 0 0)
(1.15741e-05 0 0)
(1.15741e-05 0 0)
(1.15741e-05 0 0)
(1.15741e-05 0 0)
(1.15741e-05 0 0)
(1.15741e-05 0 0)
(1.15741e-05 0 0)
(1.15741e-05 0 0)
(1.15741e-05 0 0)
(1.15741e-05 0 0)
(1.15741e-05 0 0)
(1.15741e-05 0 0)
(1.15741e-05 0 0)
(1.15741e-05 0 0)
(1.15741e-05 0 0)
(1.15741e-05 0 0)
(1.15741e-05 0 0)
(1.15741e-05 0 0)
(1.15741e-05 0 0)
(1.15741e-05 0 0)
(1.15741e-05 0 0)
(1.15741e-05 0 0)
(1.15741e-05 0 0)
(1.15741e-05 0 0)
(1.15741e-05 0 0)
(1.15741e-05 0 0)
(1.15741e-05 0 0)
(1.15741e-05 0 0)
(1.15741e-05 0 0)
(1.15741e-05 0 0)
(1.15741e-05 0 0)
(1.15741e-05 0 0)
(1.15741e-05 0 0)
(1.15741e-05 0 0)
(1.15741e-05 0 0)
(1.15741e-05 0 0)
(1.15741e-05 0 0)
(1.15741e-05 0 0)
(1.15741e-05 0 0)
(1.15741e-05 0 0)
(1.15741e-05 0 0)
(1.15741e-05 0 0)
(1.15741e-05 0 0)
(1.15741e-05 0 0)
(1.15741e-05 0 0)
(1.15741e-05 0 0)
(1.15741e-05 0 0)
(1.15741e-05 0 0)
(1.15741e-05 0 0)
(1.15741e-05 0 0)
(1.15741e-05 0 0)
(1.15741e-05 0 0)
(1.15741e-05 0 0)
(1.15741e-05 0 0)
(1.15741e-05 0 0)
(1.15741e-05 0 0)
(1.15741e-05 0 0)
(1.15741e-05 0 0)
(1.15741e-05 0 0)
(1.15741e-05 0 0)
(1.15741e-05 0 0)
(1.15741e-05 0 0)
(1.15741e-05 0 0)
(1.15741e-05 0 0)
(1.15741e-05 0 0)
(1.15741e-05 0 0)
(1.15741e-05 0 0)
(1.15741e-05 0 0)
(1.15741e-05 0 0)
(1.15741e-05 0 0)
(1.15741e-05 0 0)
(1.15741e-05 0 0)
(5.78703e-06 0 0)
(0 0 0)
)
;

boundaryField
{
    bc0
    {
        type            zeroGradient;
    }
    bc1
    {
        type            zeroGradient;
    }
    bc2
    {
        type            zeroGradient;
    }
    bc3
    {
        type            zeroGradient;
    }
    top
    {
        type            zeroGradient;
    }
    bottom
    {
        type            zeroGradient;
    }
}


// ************************************************************************* //
