/*--------------------------------*- C++ -*----------------------------------*\
  =========                 |
  \\      /  F ield         | OpenFOAM: The Open Source CFD Toolbox
   \\    /   O peration     | Website:  https://openfoam.org
    \\  /    A nd           | Version:  6
     \\/     M anipulation  |
\*---------------------------------------------------------------------------*/
FoamFile
{
    version     2.0;
    format      ascii;
    class       volScalarField;
    location    "518400";
    object      Cg0;
}
// * * * * * * * * * * * * * * * * * * * * * * * * * * * * * * * * * * * * * //

dimensions      [1 -3 0 0 0 0 0];

internalField   nonuniform List<scalar> 
184
(
4.34187e-10
4.34187e-10
4.34174e-10
4.3408e-10
4.35782e-10
4.80313e-10
1.48113e-09
5.51569e-09
1.4421e-08
2.61903e-05
0.00184255
0.00603889
0.0121703
0.0196715
0.0279834
0.0366748
0.0454514
0.0541261
0.0625862
0.0707679
0.0786383
0.0861838
0.0934024
0.100299
0.106883
0.113165
0.119158
0.12461
0.118112
0.111661
0.105503
0.0996229
0.0940073
0.0886438
0.0835211
0.0786285
0.0739565
0.0694959
0.0652381
0.061175
0.057299
0.0536027
0.0500789
0.046721
0.0435224
0.0404768
0.037578
0.0348203
0.0321979
0.0297052
0.0273369
0.0250879
0.022953
0.0209275
0.0190067
0.0171859
0.0154609
0.0138273
0.012281
0.0108181
0.00943472
0.00812687
0.00689134
0.00572548
0.00462299
0.00358633
0.00260741
0.00168577
0.000817843
3.44051e-05
1.86076e-06
6.3821e-07
2.58233e-07
1.17058e-07
4.60591e-08
1.97394e-08
8.59758e-09
4.40397e-09
3.7577e-09
4.61439e-09
4.11202e-09
3.84378e-09
5.3325e-09
5.5145e-09
5.39809e-09
4.88147e-09
5.4342e-09
5.40789e-09
5.09519e-09
4.79902e-09
4.51879e-09
4.25388e-09
4.00367e-09
3.76757e-09
3.54502e-09
3.33547e-09
3.13837e-09
2.95317e-09
2.77934e-09
2.61634e-09
2.46364e-09
2.32072e-09
2.18707e-09
2.06218e-09
1.94558e-09
1.8368e-09
1.73537e-09
1.64087e-09
1.55288e-09
1.47099e-09
1.39482e-09
1.32402e-09
1.25823e-09
1.19712e-09
1.14039e-09
1.08774e-09
1.0389e-09
9.93599e-10
9.51599e-10
9.12671e-10
8.76599e-10
8.43184e-10
8.12238e-10
7.83586e-10
7.57066e-10
7.32525e-10
7.09821e-10
6.88823e-10
6.69408e-10
6.51462e-10
6.34878e-10
6.19559e-10
6.05411e-10
5.92349e-10
5.80295e-10
5.69174e-10
5.58917e-10
5.4946e-10
5.40745e-10
5.32718e-10
5.25337e-10
5.18493e-10
5.11448e-10
5.07459e-10
4.98626e-10
4.89002e-10
4.79987e-10
4.71352e-10
4.63173e-10
4.55542e-10
4.48495e-10
4.42019e-10
4.3606e-10
4.30545e-10
4.25402e-10
4.20567e-10
4.15996e-10
4.11662e-10
4.07555e-10
4.03678e-10
4.00042e-10
3.96658e-10
3.9354e-10
3.907e-10
3.8815e-10
3.85907e-10
3.83989e-10
3.82428e-10
3.81264e-10
3.80555e-10
3.8035e-10
3.80718e-10
3.81741e-10
3.83478e-10
3.85972e-10
3.89241e-10
3.93267e-10
3.97993e-10
4.03326e-10
4.09143e-10
4.15293e-10
4.2162e-10
4.2797e-10
4.34187e-10
)
;

boundaryField
{
    bc0
    {
        type            zeroGradient;
    }
    bc1
    {
        type            zeroGradient;
    }
    bc2
    {
        type            zeroGradient;
    }
    bc3
    {
        type            zeroGradient;
    }
    top
    {
        type            zeroGradient;
    }
    bottom
    {
        type            zeroGradient;
    }
}


// ************************************************************************* //
