/*--------------------------------*- C++ -*----------------------------------*\
  =========                 |
  \\      /  F ield         | OpenFOAM: The Open Source CFD Toolbox
   \\    /   O peration     | Website:  https://openfoam.org
    \\  /    A nd           | Version:  6
     \\/     M anipulation  |
\*---------------------------------------------------------------------------*/
FoamFile
{
    version     2.0;
    format      ascii;
    class       volScalarField;
    location    "518400";
    object      Cg1;
}
// * * * * * * * * * * * * * * * * * * * * * * * * * * * * * * * * * * * * * //

dimensions      [1 -3 0 0 0 0 0];

internalField   nonuniform List<scalar> 
184
(
0.000874926
0.000874926
0.000874908
0.000875208
0.000883852
0.00104268
0.00304526
0.0135625
0.0347534
0.0582085
0.0679916
0.0751554
0.0804436
0.0844344
0.0875159
0.0899485
0.0919102
0.0935247
0.0948794
0.0960368
0.0970425
0.09793
0.0987249
0.0994461
0.100109
0.100724
0.101301
0.101752
0.103218
0.104526
0.105777
0.106974
0.108121
0.109221
0.110276
0.111289
0.112261
0.113195
0.114092
0.114954
0.115783
0.11658
0.117346
0.118083
0.118792
0.119474
0.120131
0.120762
0.12137
0.121955
0.122518
0.123061
0.123583
0.124086
0.124571
0.125038
0.125488
0.125922
0.126341
0.126745
0.127134
0.127511
0.127876
0.128223
0.128574
0.128889
0.129201
0.12951
0.129809
0.130024
0.125592
0.121039
0.116623
0.112343
0.108198
0.104182
0.100293
0.0965278
0.0928831
0.0893557
0.0859426
0.0826409
0.0794477
0.0763603
0.0733759
0.0704918
0.0677054
0.0650141
0.0624155
0.0599069
0.0574861
0.0551504
0.0528977
0.0507255
0.0486317
0.0466139
0.04467
0.0427978
0.0409952
0.0392601
0.0375906
0.0359845
0.03444
0.0329552
0.0315281
0.0301571
0.0288402
0.0275758
0.0263621
0.0251976
0.0240806
0.0230095
0.0219828
0.020999
0.0200568
0.0191546
0.018291
0.0174648
0.0166746
0.0159192
0.0151974
0.014508
0.0138498
0.0132217
0.0126228
0.0120518
0.011508
0.0109902
0.0104977
0.0100294
0.00958453
0.00916231
0.00876195
0.00838268
0.00802379
0.00768459
0.00736442
0.00706266
0.00677873
0.00651207
0.0062622
0.00602831
0.00580392
0.00557938
0.00532356
0.00504074
0.0047377
0.00441973
0.00409447
0.00376969
0.00345246
0.00314865
0.00286279
0.00259799
0.00235613
0.00213796
0.00194335
0.00177152
0.00162117
0.00149071
0.00137839
0.00128238
0.00120089
0.00113219
0.00107468
0.00102691
0.000987551
0.000955439
0.000929545
0.000908967
0.000892918
0.000880714
0.000871757
0.000865523
0.000861556
0.000859453
0.000858864
0.000859459
0.000860986
0.000863188
0.000865855
0.000868802
0.00087187
0.000874926
)
;

boundaryField
{
    bc0
    {
        type            zeroGradient;
    }
    bc1
    {
        type            zeroGradient;
    }
    bc2
    {
        type            zeroGradient;
    }
    bc3
    {
        type            zeroGradient;
    }
    top
    {
        type            zeroGradient;
    }
    bottom
    {
        type            zeroGradient;
    }
}


// ************************************************************************* //
