/*--------------------------------*- C++ -*----------------------------------*\
  =========                 |
  \\      /  F ield         | OpenFOAM: The Open Source CFD Toolbox
   \\    /   O peration     | Website:  https://openfoam.org
    \\  /    A nd           | Version:  6
     \\/     M anipulation  |
\*---------------------------------------------------------------------------*/
FoamFile
{
    version     2.0;
    format      ascii;
    class       volScalarField;
    location    "518400";
    object      Cg3;
}
// * * * * * * * * * * * * * * * * * * * * * * * * * * * * * * * * * * * * * //

dimensions      [1 -3 0 0 0 0 0];

internalField   nonuniform List<scalar> 
184
(
0.199841
0.199841
0.199835
0.19954
0.193916
0.154125
0.0923226
0.0476865
0.0184476
7.16291e-06
2.08478e-76
1.94394e-05
1.56328e-05
1.35825e-05
1.19184e-05
1.04479e-05
9.13015e-06
7.94118e-06
6.86071e-06
5.87153e-06
4.95955e-06
4.11328e-06
3.32315e-06
2.58333e-06
1.88721e-06
1.22677e-06
6.00429e-07
3.10079e-75
9.37977e-07
1.82973e-06
2.68816e-06
3.51082e-06
4.30413e-06
5.06945e-06
5.80889e-06
6.5242e-06
7.21689e-06
7.88828e-06
8.53954e-06
9.1717e-06
9.78572e-06
1.03825e-05
1.09627e-05
1.15273e-05
1.20768e-05
1.26119e-05
1.31333e-05
1.36414e-05
1.41366e-05
1.46193e-05
1.50897e-05
1.55482e-05
1.59946e-05
1.64288e-05
1.68498e-05
1.72546e-05
1.76369e-05
1.79856e-05
1.82925e-05
1.85949e-05
1.91453e-05
1.82155e-05
1.38206e-05
1.88552e-05
1.10801e-77
1.50127e-05
1.70904e-05
9.11405e-06
1.80628e-07
5.64269e-05
0.00563729
0.0114153
0.0170571
0.0225612
0.0279293
0.033164
0.0382678
0.0432434
0.0480933
0.0528199
0.0574257
0.061913
0.0662841
0.0705412
0.0746865
0.0787221
0.0826501
0.0864725
0.0901914
0.0938087
0.0973265
0.100747
0.104071
0.107302
0.110441
0.113489
0.11645
0.119324
0.122113
0.12482
0.127446
0.129992
0.132461
0.134854
0.137173
0.139419
0.141594
0.143699
0.145737
0.147709
0.149615
0.151458
0.15324
0.154961
0.156622
0.158226
0.159774
0.161267
0.162705
0.164092
0.165427
0.166712
0.167947
0.169136
0.170277
0.171372
0.172423
0.173431
0.174395
0.175318
0.1762
0.177042
0.177845
0.178609
0.179336
0.180026
0.180679
0.181298
0.181881
0.18243
0.182946
0.183428
0.183888
0.184362
0.18488
0.185458
0.186095
0.186779
0.187499
0.188242
0.188994
0.189745
0.190482
0.191199
0.191887
0.192543
0.193162
0.193743
0.194285
0.194787
0.195251
0.195679
0.196071
0.19643
0.196759
0.19706
0.197336
0.197588
0.197819
0.198031
0.198226
0.198406
0.198572
0.198727
0.198871
0.199005
0.199131
0.199249
0.199361
0.199467
0.199567
0.199662
0.199753
0.19984
)
;

boundaryField
{
    bc0
    {
        type            zeroGradient;
    }
    bc1
    {
        type            zeroGradient;
    }
    bc2
    {
        type            zeroGradient;
    }
    bc3
    {
        type            zeroGradient;
    }
    top
    {
        type            zeroGradient;
    }
    bottom
    {
        type            zeroGradient;
    }
}


// ************************************************************************* //
