/*--------------------------------*- C++ -*----------------------------------*\
  =========                 |
  \\      /  F ield         | OpenFOAM: The Open Source CFD Toolbox
   \\    /   O peration     | Website:  https://openfoam.org
    \\  /    A nd           | Version:  6
     \\/     M anipulation  |
\*---------------------------------------------------------------------------*/
FoamFile
{
    version     2.0;
    format      ascii;
    class       volScalarField;
    location    "518400";
    object      Cw0;
}
// * * * * * * * * * * * * * * * * * * * * * * * * * * * * * * * * * * * * * //

dimensions      [0 -3 0 0 1 0 0];

internalField   nonuniform List<scalar> 
184
(
55.3416
55.3416
55.3416
55.3416
55.3416
55.3416
55.3416
55.3416
55.3416
55.3419
55.3422
55.3425
55.3426
55.3428
55.3431
55.3433
55.3436
55.344
55.3443
55.3447
55.3451
55.3455
55.3459
55.3462
55.3462
55.346
55.3451
55.3416
55.3455
55.3469
55.3479
55.3486
55.349
55.3492
55.3494
55.3496
55.3497
55.3499
55.35
55.3502
55.3503
55.3504
55.3506
55.3507
55.3509
55.351
55.3511
55.3513
55.3514
55.3515
55.3516
55.3517
55.3517
55.3516
55.3513
55.3511
55.3533
55.3537
55.3535
55.3537
55.3533
55.3523
55.3519
55.3522
55.3525
55.3526
55.3526
55.3521
55.3508
55.3477
55.3443
55.3428
55.3421
55.3418
55.3417
55.3417
55.3416
55.3416
55.3416
55.3416
55.3416
55.3416
55.3416
55.3416
55.3416
55.3416
55.3416
55.3416
55.3416
55.3416
55.3416
55.3416
55.3416
55.3416
55.3416
55.3416
55.3416
55.3416
55.3416
55.3416
55.3416
55.3416
55.3416
55.3416
55.3416
55.3416
55.3416
55.3416
55.3416
55.3416
55.3416
55.3416
55.3416
55.3416
55.3416
55.3416
55.3416
55.3416
55.3416
55.3416
55.3416
55.3416
55.3416
55.3416
55.3416
55.3416
55.3416
55.3416
55.3416
55.3416
55.3416
55.3416
55.3416
55.3416
55.3416
55.3416
55.3416
55.3416
55.3416
55.3416
55.3416
55.3416
55.3416
55.3416
55.3416
55.3416
55.3416
55.3416
55.3416
55.3416
55.3416
55.3416
55.3416
55.3416
55.3416
55.3416
55.3416
55.3416
55.3416
55.3416
55.3416
55.3416
55.3416
55.3416
55.3416
55.3416
55.3416
55.3416
55.3416
55.3416
55.3416
55.3416
55.3416
55.3416
55.3416
55.3416
55.3416
55.3416
55.3416
55.3416
55.3416
55.3416
55.3416
55.3416
)
;

boundaryField
{
    bc0
    {
        type            zeroGradient;
    }
    bc1
    {
        type            zeroGradient;
    }
    bc2
    {
        type            zeroGradient;
    }
    bc3
    {
        type            zeroGradient;
    }
    top
    {
        type            zeroGradient;
    }
    bottom
    {
        type            zeroGradient;
    }
}


// ************************************************************************* //
