/*--------------------------------*- C++ -*----------------------------------*\
  =========                 |
  \\      /  F ield         | OpenFOAM: The Open Source CFD Toolbox
   \\    /   O peration     | Website:  https://openfoam.org
    \\  /    A nd           | Version:  6
     \\/     M anipulation  |
\*---------------------------------------------------------------------------*/
FoamFile
{
    version     2.0;
    format      ascii;
    class       volScalarField;
    location    "518400";
    object      Cw4;
}
// * * * * * * * * * * * * * * * * * * * * * * * * * * * * * * * * * * * * * //

dimensions      [0 -3 0 0 1 0 0];

internalField   nonuniform List<scalar> 
184
(
7.80344e-11
7.80344e-11
7.80314e-11
7.8015e-11
7.83216e-11
8.63273e-11
2.66186e-10
9.91097e-10
2.59102e-09
4.70528e-06
0.000331067
0.00108501
0.00218653
0.00353418
0.00502759
0.00658935
0.00816658
0.00972566
0.0112463
0.0127171
0.014132
0.0154885
0.0167864
0.0180264
0.0192102
0.0203393
0.0214115
0.0223427
0.0212252
0.0200695
0.018963
0.0179062
0.0168968
0.0159328
0.015012
0.0141326
0.0132928
0.0124911
0.0117258
0.0109955
0.0102989
0.00963449
0.00900116
0.00839763
0.00782273
0.00727533
0.00675433
0.00625868
0.00578734
0.00533931
0.00491365
0.00450941
0.00412569
0.00376161
0.00341634
0.00308906
0.00277912
0.0024855
0.00220755
0.0019446
0.00169592
0.0014608
0.00123871
0.00102915
0.00083097
0.000644628
0.000468648
0.000302958
0.000146938
6.17753e-06
3.34259e-07
1.14675e-07
4.64049e-08
2.10366e-08
8.2775e-09
3.54749e-09
1.54513e-09
7.91472e-10
6.75327e-10
8.2929e-10
7.39006e-10
6.90799e-10
9.5835e-10
9.9106e-10
9.70139e-10
8.77293e-10
9.76631e-10
9.71903e-10
9.15705e-10
8.62478e-10
8.12116e-10
7.64507e-10
7.19539e-10
6.77109e-10
6.37113e-10
5.99453e-10
5.6403e-10
5.30746e-10
4.99506e-10
4.70211e-10
4.42768e-10
4.17083e-10
3.93063e-10
3.70618e-10
3.49663e-10
3.30112e-10
3.11884e-10
2.949e-10
2.79086e-10
2.64369e-10
2.50681e-10
2.37956e-10
2.26132e-10
2.1515e-10
2.04954e-10
1.95492e-10
1.86714e-10
1.78572e-10
1.71024e-10
1.64028e-10
1.57545e-10
1.5154e-10
1.45978e-10
1.40829e-10
1.36062e-10
1.31652e-10
1.27572e-10
1.23798e-10
1.20308e-10
1.17083e-10
1.14103e-10
1.11349e-10
1.08807e-10
1.06459e-10
1.04293e-10
1.02295e-10
1.00452e-10
9.87534e-11
9.71896e-11
9.5752e-11
9.44364e-11
9.32288e-11
9.20076e-11
9.1332e-11
8.9753e-11
8.80123e-11
8.63712e-11
8.47958e-11
8.33039e-11
8.1913e-11
8.06304e-11
7.94531e-11
7.83711e-11
7.73712e-11
7.64397e-11
7.55651e-11
7.47391e-11
7.39566e-11
7.32158e-11
7.2517e-11
7.18619e-11
7.12527e-11
7.06917e-11
7.01809e-11
6.97225e-11
6.93193e-11
6.8975e-11
6.86947e-11
6.8486e-11
6.83591e-11
6.83229e-11
6.83894e-11
6.8574e-11
6.88869e-11
6.93359e-11
6.9924e-11
7.06482e-11
7.14984e-11
7.24578e-11
7.35041e-11
7.4611e-11
7.57506e-11
7.6898e-11
7.80344e-11
)
;

boundaryField
{
    bc0
    {
        type            zeroGradient;
    }
    bc1
    {
        type            zeroGradient;
    }
    bc2
    {
        type            zeroGradient;
    }
    bc3
    {
        type            zeroGradient;
    }
    top
    {
        type            zeroGradient;
    }
    bottom
    {
        type            zeroGradient;
    }
}


// ************************************************************************* //
