/*--------------------------------*- C++ -*----------------------------------*\
  =========                 |
  \\      /  F ield         | OpenFOAM: The Open Source CFD Toolbox
   \\    /   O peration     | Website:  https://openfoam.org
    \\  /    A nd           | Version:  6
     \\/     M anipulation  |
\*---------------------------------------------------------------------------*/
FoamFile
{
    version     2.0;
    format      ascii;
    class       volScalarField;
    location    "518400";
    object      Cw5;
}
// * * * * * * * * * * * * * * * * * * * * * * * * * * * * * * * * * * * * * //

dimensions      [0 -3 0 0 1 0 0];

internalField   nonuniform List<scalar> 
184
(
0.000461667
0.000461667
0.000461647
0.000461395
0.000461729
0.000467382
0.000536155
0.000893673
0.0016134
0.0024099
0.00274244
0.00298565
0.00316514
0.00330067
0.00340538
0.00348813
0.00355488
0.00360989
0.00365603
0.00369552
0.00372979
0.0037601
0.0037872
0.00381198
0.00383927
0.00397732
0.00600073
0.0200582
0.00541173
0.00405255
0.00402913
0.00406788
0.00410683
0.00414416
0.00418001
0.00421438
0.00424744
0.00427914
0.00430965
0.00433892
0.00436711
0.00439417
0.00442024
0.00444527
0.00446939
0.00449256
0.00451489
0.00453634
0.00455702
0.00457689
0.00459606
0.00461449
0.00463226
0.00464934
0.00466581
0.00468166
0.00469715
0.00471192
0.00472615
0.00473988
0.00475311
0.00476584
0.00477822
0.00479
0.00480191
0.00481254
0.00482297
0.00483291
0.00484184
0.00484637
0.00469794
0.00454437
0.00439483
0.00424963
0.00410889
0.00397249
0.00384041
0.0037125
0.00358869
0.00346885
0.00335291
0.00324074
0.00313227
0.00302738
0.002926
0.00282801
0.00273336
0.00264193
0.00255365
0.00246842
0.00238618
0.00230684
0.0022303
0.00215652
0.00208538
0.00201683
0.00195079
0.00188719
0.00182594
0.001767
0.00171028
0.00165572
0.00160324
0.0015528
0.00150432
0.00145774
0.001413
0.00137004
0.0013288
0.00128924
0.00125129
0.0012149
0.00118004
0.00114657
0.00111458
0.00108393
0.00105459
0.00102652
0.000999667
0.000974001
0.000949475
0.000926049
0.000903684
0.000882343
0.00086199
0.00084259
0.000824108
0.000806514
0.000789774
0.000773859
0.000758741
0.000744392
0.000730803
0.000717877
0.000705696
0.000694167
0.000683284
0.000673029
0.000663381
0.000654329
0.000645959
0.000638235
0.000624417
0.000635793
0.000652415
0.000637688
0.000621713
0.000606533
0.000591834
0.000577322
0.00056289
0.000548572
0.000534491
0.000520815
0.000507718
0.000495354
0.000483841
0.000473248
0.000463599
0.000454877
0.000447041
0.000440027
0.000433767
0.000428193
0.000423241
0.000418852
0.000414977
0.000411572
0.000408596
0.000406012
0.000403786
0.000401883
0.000400273
0.000398931
0.000397844
0.000397028
0.000396534
0.000396407
0.000396854
0.000398666
0.000403148
0.000412949
0.000432513
0.000461667
)
;

boundaryField
{
    bc0
    {
        type            zeroGradient;
    }
    bc1
    {
        type            zeroGradient;
    }
    bc2
    {
        type            zeroGradient;
    }
    bc3
    {
        type            zeroGradient;
    }
    top
    {
        type            zeroGradient;
    }
    bottom
    {
        type            zeroGradient;
    }
}


// ************************************************************************* //
