/*--------------------------------*- C++ -*----------------------------------*\
  =========                 |
  \\      /  F ield         | OpenFOAM: The Open Source CFD Toolbox
   \\    /   O peration     | Website:  https://openfoam.org
    \\  /    A nd           | Version:  6
     \\/     M anipulation  |
\*---------------------------------------------------------------------------*/
FoamFile
{
    version     2.0;
    format      ascii;
    class       volScalarField;
    location    "518400";
    object      Cw6;
}
// * * * * * * * * * * * * * * * * * * * * * * * * * * * * * * * * * * * * * //

dimensions      [0 -3 0 0 1 0 0];

internalField   nonuniform List<scalar> 
184
(
0.000299133
0.000299133
0.00029912
0.000298937
0.000298955
0.000298998
0.000299018
0.000299024
0.000299028
0.000299036
0.000299047
0.000299058
0.000299071
0.000299087
0.000299086
0.000299108
0.000299102
0.000299122
0.000299113
0.000299132
0.00029912
0.00029914
0.000299124
0.000299144
0.000299127
0.000299153
0.000299224
0.000299884
0.000299197
0.000299151
0.000299128
0.000299137
0.000299148
0.000299128
0.000299146
0.000299127
0.000299144
0.000299126
0.000299142
0.000299126
0.000299141
0.000299125
0.00029914
0.000299126
0.00029914
0.000299126
0.000299139
0.000299126
0.000299139
0.000299127
0.000299139
0.000299127
0.000299139
0.000299128
0.000299138
0.000299128
0.000299138
0.000299128
0.000299138
0.000299129
0.000299138
0.000299129
0.000299138
0.000299129
0.000299137
0.000299129
0.000299137
0.000299129
0.000299137
0.00029913
0.000299137
0.00029913
0.000299137
0.00029913
0.000299136
0.00029913
0.000299136
0.00029913
0.000299136
0.00029913
0.000299136
0.00029913
0.000299136
0.00029913
0.000299136
0.000299131
0.000299136
0.000299131
0.000299136
0.000299131
0.000299133
0.000299136
0.000299131
0.000299135
0.000299131
0.000299135
0.000299131
0.000299135
0.000299131
0.000299135
0.000299131
0.000299135
0.000299131
0.000299133
0.000299133
0.000299133
0.000299133
0.000299133
0.000299133
0.000299133
0.000299132
0.000299133
0.00029915
0.000299117
0.000299133
0.000299134
0.000299134
0.000299134
0.000299133
0.000299133
0.000299133
0.000299133
0.000299133
0.000299133
0.000299133
0.000299133
0.000299133
0.000299133
0.000299133
0.000299133
0.000299132
0.000299133
0.000299146
0.000299121
0.000299134
0.000299134
0.000299134
0.000299133
0.000299133
0.000299135
0.000299206
0.000299331
0.000294988
0.000308078
0.000325581
0.000322072
0.00031819
0.000315212
0.000312735
0.000310373
0.000307884
0.000305157
0.00030217
0.000298967
0.000295626
0.000292235
0.000288878
0.000285623
0.000282515
0.000279582
0.000276833
0.000274269
0.000271884
0.00026967
0.00026762
0.00026573
0.000263993
0.000262408
0.000260971
0.000259678
0.000258523
0.000257499
0.0002566
0.00025582
0.000255162
0.000254646
0.000254318
0.000254215
0.000254487
0.000255691
0.000258736
0.000265465
0.000278969
0.000299133
)
;

boundaryField
{
    bc0
    {
        type            zeroGradient;
    }
    bc1
    {
        type            zeroGradient;
    }
    bc2
    {
        type            zeroGradient;
    }
    bc3
    {
        type            zeroGradient;
    }
    top
    {
        type            zeroGradient;
    }
    bottom
    {
        type            zeroGradient;
    }
}


// ************************************************************************* //
