/*--------------------------------*- C++ -*----------------------------------*\
  =========                 |
  \\      /  F ield         | OpenFOAM: The Open Source CFD Toolbox
   \\    /   O peration     | Website:  https://openfoam.org
    \\  /    A nd           | Version:  6
     \\/     M anipulation  |
\*---------------------------------------------------------------------------*/
FoamFile
{
    version     2.0;
    format      ascii;
    class       volScalarField;
    location    "518400";
    object      Cw7;
}
// * * * * * * * * * * * * * * * * * * * * * * * * * * * * * * * * * * * * * //

dimensions      [0 -3 0 0 1 0 0];

internalField   nonuniform List<scalar> 
184
(
0.000199422
0.000199422
0.000199413
0.000199291
0.000199304
0.000199332
0.000199345
0.000199349
0.000199352
0.000199357
0.000199364
0.000199372
0.000199381
0.000199391
0.000199391
0.000199405
0.000199401
0.000199415
0.000199408
0.000199422
0.000199413
0.000199426
0.000199416
0.000199429
0.000199418
0.000199435
0.000199483
0.000199922
0.000199464
0.000199434
0.000199419
0.000199425
0.000199432
0.000199419
0.00019943
0.000199418
0.000199429
0.000199418
0.000199428
0.000199417
0.000199427
0.000199417
0.000199427
0.000199417
0.000199426
0.000199417
0.000199426
0.000199418
0.000199426
0.000199418
0.000199426
0.000199418
0.000199426
0.000199418
0.000199426
0.000199419
0.000199425
0.000199419
0.000199425
0.000199419
0.000199425
0.000199419
0.000199425
0.000199419
0.000199425
0.000199419
0.000199425
0.00019942
0.000199425
0.00019942
0.000199425
0.00019942
0.000199424
0.00019942
0.000199424
0.00019942
0.000199424
0.00019942
0.000199424
0.00019942
0.000199424
0.00019942
0.000199424
0.00019942
0.000199424
0.00019942
0.000199424
0.00019942
0.000199424
0.00019942
0.000199422
0.000199424
0.000199421
0.000199424
0.000199421
0.000199424
0.000199421
0.000199424
0.000199421
0.000199424
0.000199421
0.000199424
0.000199421
0.000199422
0.000199422
0.000199422
0.000199422
0.000199422
0.000199422
0.000199422
0.000199422
0.000199422
0.000199434
0.000199411
0.000199422
0.000199423
0.000199422
0.000199422
0.000199422
0.000199422
0.000199422
0.000199422
0.000199422
0.000199422
0.000199422
0.000199422
0.000199422
0.000199422
0.000199422
0.000199422
0.000199422
0.000199422
0.000199431
0.000199414
0.000199422
0.000199423
0.000199422
0.000199422
0.000199422
0.000199424
0.000199471
0.000199554
0.000196659
0.000205385
0.000217054
0.000214715
0.000212127
0.000210141
0.00020849
0.000206915
0.000205256
0.000203438
0.000201447
0.000199312
0.000197084
0.000194823
0.000192585
0.000190415
0.000188344
0.000186388
0.000184555
0.000182846
0.000181256
0.00017978
0.000178414
0.000177153
0.000175996
0.000174939
0.000173981
0.000173119
0.000172349
0.000171666
0.000171067
0.000170547
0.000170108
0.000169764
0.000169545
0.000169476
0.000169658
0.000170461
0.000172491
0.000176977
0.00018598
0.000199422
)
;

boundaryField
{
    bc0
    {
        type            zeroGradient;
    }
    bc1
    {
        type            zeroGradient;
    }
    bc2
    {
        type            zeroGradient;
    }
    bc3
    {
        type            zeroGradient;
    }
    top
    {
        type            zeroGradient;
    }
    bottom
    {
        type            zeroGradient;
    }
}


// ************************************************************************* //
