/*--------------------------------*- C++ -*----------------------------------*\
  =========                 |
  \\      /  F ield         | OpenFOAM: The Open Source CFD Toolbox
   \\    /   O peration     | Website:  https://openfoam.org
    \\  /    A nd           | Version:  6
     \\/     M anipulation  |
\*---------------------------------------------------------------------------*/
FoamFile
{
    version     2.0;
    format      ascii;
    class       volScalarField;
    location    "518400";
    object      hp;
}
// * * * * * * * * * * * * * * * * * * * * * * * * * * * * * * * * * * * * * //

dimensions      [0 1 0 0 0 0 0];

internalField   nonuniform List<scalar> 
184
(
0.02
0.0100005
1.03056e-06
-0.00999833
-0.0199975
-0.0299965
-0.0399951
-0.0499934
-0.059991
-0.0699879
-0.0799838
-0.0899784
-0.0999713
-0.109962
-0.119951
-0.129936
-0.139917
-0.149894
-0.159865
-0.169831
-0.179789
-0.189739
-0.199681
-0.209612
-0.219534
-0.229444
-0.239343
-0.249231
-0.259108
-0.268975
-0.278833
-0.288684
-0.298529
-0.308371
-0.318213
-0.328058
-0.337908
-0.347767
-0.357638
-0.367523
-0.377425
-0.387343
-0.397281
-0.407236
-0.417209
-0.427199
-0.437203
-0.447219
-0.457245
-0.467279
-0.477321
-0.487367
-0.497418
-0.507471
-0.517525
-0.527581
-0.537636
-0.547692
-0.557747
-0.567802
-0.577857
-0.587912
-0.597966
-0.608019
-0.618073
-0.628126
-0.638179
-0.648231
-0.658284
-0.668336
-0.678388
-0.68844
-0.698492
-0.708544
-0.718595
-0.728647
-0.738698
-0.748749
-0.7588
-0.768852
-0.778903
-0.788953
-0.799004
-0.809055
-0.819105
-0.829154
-0.839203
-0.84925
-0.859297
-0.869342
-0.879387
-0.889431
-0.899476
-0.909522
-0.919568
-0.929616
-0.939665
-0.949713
-0.959762
-0.969809
-0.979853
-0.989893
-0.999926
-1.00995
-1.01997
-1.02999
-1.04
-1.05001
-1.06003
-1.07008
-1.08015
-1.09026
-1.1004
-1.11057
-1.12072
-1.13084
-1.14092
-1.15097
-1.16099
-1.171
-1.181
-1.191
-1.201
-1.211
-1.221
-1.231
-1.241
-1.251
-1.26101
-1.27104
-1.2811
-1.29122
-1.30139
-1.31159
-1.32177
-1.33189
-1.34196
-1.35199
-1.362
-1.372
-1.38183
-1.38119
-1.12658
-0.662274
-0.452454
-0.350501
-0.293221
-0.257439
-0.233422
-0.216497
-0.204174
-0.195007
-0.188101
-0.182875
-0.178932
-0.175994
-0.17386
-0.172381
-0.171445
-0.170968
-0.170884
-0.171141
-0.171702
-0.172537
-0.173621
-0.174939
-0.176478
-0.178233
-0.180199
-0.182378
-0.184774
-0.187395
-0.190253
-0.193366
-0.196754
-0.200445
-0.204474
-0.208885
-0.213732
-0.219086
-0.225036
-0.231699
-0.239232
-0.247847
)
;

boundaryField
{
    bc0
    {
        type            fixedGradient;
        gradient        uniform -1;
    }
    bc1
    {
        type            zeroGradient;
    }
    bc2
    {
        type            zeroGradient;
    }
    bc3
    {
        type            zeroGradient;
    }
    top
    {
        type            zeroGradient;
    }
    bottom
    {
        type            zeroGradient;
    }
}


// ************************************************************************* //
