/*--------------------------------*- C++ -*----------------------------------*\
  =========                 |
  \\      /  F ield         | OpenFOAM: The Open Source CFD Toolbox
   \\    /   O peration     | Website:  https://openfoam.org
    \\  /    A nd           | Version:  6
     \\/     M anipulation  |
\*---------------------------------------------------------------------------*/
FoamFile
{
    version     2.0;
    format      ascii;
    class       surfaceScalarField;
    location    "518400";
    object      phiw;
}
// * * * * * * * * * * * * * * * * * * * * * * * * * * * * * * * * * * * * * //

dimensions      [0 3 -1 0 0 0 0];

internalField   nonuniform List<scalar> 
183
(
-5.78794e-07
-1.26377e-10
-1.21501e-10
-1.21656e-10
-1.21728e-10
-1.21704e-10
-1.21581e-10
-1.21357e-10
-1.21032e-10
-1.20605e-10
-1.20071e-10
-1.19421e-10
-1.18641e-10
-1.17713e-10
-1.16617e-10
-1.15329e-10
-1.13822e-10
-1.12072e-10
-1.10051e-10
-1.07733e-10
-1.05094e-10
-1.02114e-10
-9.87767e-11
-9.50723e-11
-9.09981e-11
-8.65603e-11
-8.17748e-11
-7.66686e-11
-7.12802e-11
-6.56592e-11
-5.98666e-11
-5.39726e-11
-4.80558e-11
-4.21997e-11
-3.64901e-11
-3.10111e-11
-2.58417e-11
-2.10515e-11
-1.66974e-11
-1.2821e-11
-9.44621e-12
-6.57895e-12
-4.20741e-12
-2.30404e-12
-8.36769e-13
2.55747e-13
1.07007e-12
1.61317e-12
1.95173e-12
2.13039e-12
2.18951e-12
2.16399e-12
2.08255e-12
1.96771e-12
1.83615e-12
1.69953e-12
1.56546e-12
1.4384e-12
1.32062e-12
1.21291e-12
1.11518e-12
1.02683e-12
9.47037e-13
8.74942e-13
8.097e-13
7.5054e-13
6.96779e-13
6.47817e-13
6.03132e-13
5.62269e-13
5.24831e-13
4.90469e-13
4.58879e-13
4.2979e-13
4.02963e-13
3.78182e-13
3.55254e-13
3.33997e-13
3.14237e-13
2.95795e-13
2.78482e-13
2.62085e-13
2.46373e-13
2.31113e-13
2.16123e-13
2.01338e-13
1.86904e-13
1.73212e-13
1.60844e-13
1.50393e-13
1.42209e-13
1.36203e-13
1.31833e-13
1.28284e-13
1.24743e-13
1.20581e-13
1.15379e-13
1.08804e-13
1.00509e-13
9.01536e-14
7.76251e-14
6.33505e-14
4.84973e-14
3.4876e-14
2.46019e-14
1.98388e-14
2.2865e-14
3.6158e-14
6.16277e-14
9.83238e-14
1.3952e-13
1.72338e-13
1.83024e-13
1.65895e-13
1.2801e-13
8.42379e-14
4.75124e-14
2.31296e-14
9.79504e-15
3.63758e-15
1.19459e-15
3.53038e-16
1.10347e-16
9.89019e-17
2.93557e-16
9.85527e-16
3.02479e-15
8.25578e-15
1.96808e-14
4.01477e-14
6.84522e-14
9.51167e-14
1.05308e-13
9.17734e-14
6.3099e-14
3.47032e-14
1.55511e-14
5.47548e-15
-1.74999e-14
-1.16085e-12
-3.02169e-11
-2.54119e-10
-3.83274e-09
-1.48545e-08
-2.23779e-08
-2.72013e-08
-3.06766e-08
-3.31978e-08
-3.49638e-08
-3.61185e-08
-3.6777e-08
-3.70324e-08
-3.69605e-08
-3.66222e-08
-3.60672e-08
-3.53357e-08
-3.44604e-08
-3.3468e-08
-3.23804e-08
-3.12158e-08
-2.99891e-08
-2.87129e-08
-2.73975e-08
-2.60517e-08
-2.4683e-08
-2.32977e-08
-2.19014e-08
-2.04988e-08
-1.90941e-08
-1.76909e-08
-1.62928e-08
-1.49028e-08
-1.35238e-08
-1.21587e-08
-1.08102e-08
-9.48096e-09
-8.17389e-09
-6.8919e-09
-5.63815e-09
-4.41607e-09
-3.22949e-09
-2.08272e-09
-9.80698e-10
)
;

boundaryField
{
    bc0
    {
        type            calculated;
        value           uniform 0;
    }
    bc1
    {
        type            calculated;
        value           uniform 0;
    }
    bc2
    {
        type            calculated;
        value           uniform 2.31482e-06;
    }
    bc3
    {
        type            calculated;
        value           uniform 0;
    }
    top
    {
        type            calculated;
        value           uniform 0;
    }
    bottom
    {
        type            calculated;
        value           uniform 0;
    }
}


// ************************************************************************* //
