/*--------------------------------*- C++ -*----------------------------------*\
  =========                 |
  \\      /  F ield         | OpenFOAM: The Open Source CFD Toolbox
   \\    /   O peration     | Website:  https://openfoam.org
    \\  /    A nd           | Version:  6
     \\/     M anipulation  |
\*---------------------------------------------------------------------------*/
FoamFile
{
    version     2.0;
    format      ascii;
    class       volVectorField;
    location    "518400";
    object      Uw;
}
// * * * * * * * * * * * * * * * * * * * * * * * * * * * * * * * * * * * * * //

dimensions      [0 1 -1 0 0 0 0];

internalField   nonuniform List<vector> 
184
(
(0 -1.44681e-06 0)
(0 -2.8946e-07 0)
(0 -1.23939e-10 0)
(0 -1.21579e-10 0)
(0 -1.21692e-10 0)
(0 -1.21716e-10 0)
(0 -1.21643e-10 0)
(0 -1.21469e-10 0)
(0 -1.21194e-10 0)
(0 -1.20819e-10 0)
(0 -1.20338e-10 0)
(0 -1.19746e-10 0)
(0 -1.19031e-10 0)
(0 -1.18177e-10 0)
(0 -1.17165e-10 0)
(0 -1.15973e-10 0)
(0 -1.14575e-10 0)
(0 -1.12947e-10 0)
(0 -1.11061e-10 0)
(0 -1.08892e-10 0)
(0 -1.06413e-10 0)
(0 -1.03604e-10 0)
(0 -1.00445e-10 0)
(0 -9.69245e-11 0)
(0 -9.30352e-11 0)
(0 -8.87792e-11 0)
(0 -8.41675e-11 0)
(0 -7.92217e-11 0)
(0 -7.39744e-11 0)
(0 -6.84697e-11 0)
(0 -6.27629e-11 0)
(0 -5.69196e-11 0)
(0 -5.10142e-11 0)
(0 -4.51277e-11 0)
(0 -3.93449e-11 0)
(0 -3.37506e-11 0)
(0 -2.84264e-11 0)
(0 -2.34466e-11 0)
(0 -1.88744e-11 0)
(0 -1.47592e-11 0)
(0 -1.11336e-11 0)
(0 -8.01258e-12 0)
(0 -5.39318e-12 0)
(0 -3.25573e-12 0)
(0 -1.5704e-12 0)
(0 -2.90511e-13 0)
(0 6.62908e-13 0)
(0 1.34162e-12 0)
(0 1.78245e-12 0)
(0 2.04106e-12 0)
(0 2.15995e-12 0)
(0 2.17675e-12 0)
(0 2.12327e-12 0)
(0 2.02513e-12 0)
(0 1.90193e-12 0)
(0 1.76784e-12 0)
(0 1.6325e-12 0)
(0 1.50193e-12 0)
(0 1.37951e-12 0)
(0 1.26676e-12 0)
(0 1.16404e-12 0)
(0 1.071e-12 0)
(0 9.86931e-13 0)
(0 9.1099e-13 0)
(0 8.42321e-13 0)
(0 7.8012e-13 0)
(0 7.23659e-13 0)
(0 6.72298e-13 0)
(0 6.25475e-13 0)
(0 5.82701e-13 0)
(0 5.4355e-13 0)
(0 5.0765e-13 0)
(0 4.74674e-13 0)
(0 4.44335e-13 0)
(0 4.16376e-13 0)
(0 3.90572e-13 0)
(0 3.66718e-13 0)
(0 3.44626e-13 0)
(0 3.24117e-13 0)
(0 3.05016e-13 0)
(0 2.87138e-13 0)
(0 2.70283e-13 0)
(0 2.54229e-13 0)
(0 2.38743e-13 0)
(0 2.23618e-13 0)
(0 2.0873e-13 0)
(0 1.94121e-13 0)
(0 1.80058e-13 0)
(0 1.67028e-13 0)
(0 1.55619e-13 0)
(0 1.46301e-13 0)
(0 1.39206e-13 0)
(0 1.34018e-13 0)
(0 1.30059e-13 0)
(0 1.26514e-13 0)
(0 1.22662e-13 0)
(0 1.1798e-13 0)
(0 1.12092e-13 0)
(0 1.04657e-13 0)
(0 9.53313e-14 0)
(0 8.38894e-14 0)
(0 7.04878e-14 0)
(0 5.59239e-14 0)
(0 4.16866e-14 0)
(0 2.9739e-14 0)
(0 2.22204e-14 0)
(0 2.13519e-14 0)
(0 2.95115e-14 0)
(0 4.88928e-14 0)
(0 7.99757e-14 0)
(0 1.18922e-13 0)
(0 1.55929e-13 0)
(0 1.77681e-13 0)
(0 1.7446e-13 0)
(0 1.46952e-13 0)
(0 1.06124e-13 0)
(0 6.58751e-14 0)
(0 3.5321e-14 0)
(0 1.64623e-14 0)
(0 6.71631e-15 0)
(0 2.41609e-15 0)
(0 7.73815e-16 0)
(0 2.31693e-16 0)
(0 1.04625e-16 0)
(0 1.96229e-16 0)
(0 6.39542e-16 0)
(0 2.00516e-15 0)
(0 5.64029e-15 0)
(0 1.39683e-14 0)
(0 2.99142e-14 0)
(0 5.43e-14 0)
(0 8.17845e-14 0)
(0 1.00212e-13 0)
(0 9.85408e-14 0)
(0 7.74362e-14 0)
(0 4.89011e-14 0)
(0 2.51271e-14 0)
(0 1.05133e-14 0)
(0 -6.01219e-15 0)
(0 -5.89174e-13 0)
(0 -1.56889e-11 0)
(0 -1.42168e-10 0)
(0 -2.04343e-09 0)
(0 -9.34364e-09 0)
(0 -1.86162e-08 0)
(0 -2.47896e-08 0)
(0 -2.89389e-08 0)
(0 -3.19372e-08 0)
(0 -3.40808e-08 0)
(0 -3.55412e-08 0)
(0 -3.64477e-08 0)
(0 -3.69047e-08 0)
(0 -3.69965e-08 0)
(0 -3.67914e-08 0)
(0 -3.63447e-08 0)
(0 -3.57015e-08 0)
(0 -3.4898e-08 0)
(0 -3.39642e-08 0)
(0 -3.29242e-08 0)
(0 -3.17981e-08 0)
(0 -3.06025e-08 0)
(0 -2.9351e-08 0)
(0 -2.80552e-08 0)
(0 -2.67246e-08 0)
(0 -2.53673e-08 0)
(0 -2.39904e-08 0)
(0 -2.25996e-08 0)
(0 -2.12001e-08 0)
(0 -1.97964e-08 0)
(0 -1.83925e-08 0)
(0 -1.69919e-08 0)
(0 -1.55978e-08 0)
(0 -1.42133e-08 0)
(0 -1.28413e-08 0)
(0 -1.14844e-08 0)
(0 -1.01456e-08 0)
(0 -8.82742e-09 0)
(0 -7.53289e-09 0)
(0 -6.26502e-09 0)
(0 -5.02711e-09 0)
(0 -3.82278e-09 0)
(0 -2.6561e-09 0)
(0 -1.53171e-09 0)
(0 -4.90349e-10 0)
)
;

boundaryField
{
    bc0
    {
        type            zeroGradient;
    }
    bc1
    {
        type            zeroGradient;
    }
    bc2
    {
        type            zeroGradient;
    }
    bc3
    {
        type            zeroGradient;
    }
    top
    {
        type            zeroGradient;
    }
    bottom
    {
        type            zeroGradient;
    }
}


// ************************************************************************* //
