/*--------------------------------*- C++ -*----------------------------------*\
  =========                 |
  \\      /  F ield         | OpenFOAM: The Open Source CFD Toolbox
   \\    /   O peration     | Website:  https://openfoam.org
    \\  /    A nd           | Version:  6
     \\/     M anipulation  |
\*---------------------------------------------------------------------------*/
FoamFile
{
    version     2.0;
    format      ascii;
    class       volScalarField;
    location    "12096000";
    object      Cw;
}
// * * * * * * * * * * * * * * * * * * * * * * * * * * * * * * * * * * * * * //

dimensions      [1 -3 0 0 0 0 0];

internalField   nonuniform List<scalar> 
11831
(
0
0
0
0
0
0
0
0
0
0
0
0
0
0
0
0
0
0
0
0
0
0
0
0
0
0
0
0
0
0
0
0
0
0
0
0
0
0
0
0
0
0
0
0
0
0
0
0
0
0
0
0
0
0
0
0
0
0
0
0
0
0
0
0
0
0
0
0
0
0
0
0
0
0
0
0
0
0
0
0
0
0
0
0
0
0
0
0
0
0
0
0
0
0
0
0
0
0
0
0
0
0
0
0
0
0
0
0
0
0
0
0
0
0
0
0
0
0
0
0
0
0
0
0
0
0
0
0
0
0
0
0
0
0
0
0
0
0
0
0
0
0
0
0
0
0
0
0
0
0
0
0
0
0
0
0
0
0
0
0
0
0
0
0
0
0
0
0
0
0
0
0
0
0
0
0
0
0
0
0
0
0
0
0
0
0
0
0
0
0
0
0
0
0
0
0
0
0
0
0
0
0
0
0
0
0
0
0
0
0
0
0
0
0
0
0
0
0
0
0
0
0
0
0
0
0
0
0
0
0
0
0
0
0
0
0
0
0
0
0
0
0
0
0
0
0
0
0
0
0
0
0
0
0
0
0
0
0
0
0
0
0
0
0
0
0
0
0
0
0
0
0
0
0
0
0
0
0
0
0
0
0
0
0
0
0
0
0
0
0
0
0
0
0
0
0
0
0
0
0
0
0
0
0
0
0
0
0
0
0
0
0
0
0
0
0
0
0
0
0
0
0
0
0
0
0
0
0
0
0
0
0
0
0
0
0
0
0
0
0
0
0
0
0
0
0
0
0
0
0
0
0
0
0
0
0
0
0
0
0
0
0
0
0
0
0
0
0
0
0
0
0
0
0
0
0
0
0
0
0
0
0
0
0
0
0
0
0
0
0
0
0
0
0
0
0
0
0
0
0
1.74159e-29
-5.11688e-20
1.86513e-20
-1.00574e-26
6.88718e-24
3.20846e-29
-5.59451e-16
-1.06861e-28
3.13762e-31
-3.0207e-26
-2.46578e-16
9.81713e-24
-1.55288e-13
4.00557e-30
1.80905e-28
2.00867e-27
1.24062e-27
1.37575e-25
-1.96329e-14
4.45481e-34
7.40697e-32
3.16368e-28
5.73405e-12
1.12851e-33
1.41003e-36
-7.88508e-26
-7.36417e-12
-1.62953e-31
-1.58668e-28
1.62418e-36
5.60918e-34
1.23886e-10
1.12874e-26
-3.85051e-34
5.38923e-39
-3.50484e-11
-2.39625e-28
-2.91322e-41
-8.10526e-36
-4.38601e-10
5.45585e-27
5.2713e-37
4.50808e-41
1.40627e-10
5.94157e-29
-3.03659e-43
-8.0698e-38
1.52526e-10
-3.2366e-30
4.22584e-18
1.31549e-26
-4.76097e-22
7.72983e-28
-1.50066e-39
-2.34915e-22
5.34196e-29
3.35807e-17
9.60831e-28
-1.36068e-25
-4.92793e-26
-5.9691e-28
-2.18998e-43
-3.05572e-26
4.87066e-15
5.17419e-10
-2.34451e-32
9.93246e-15
9.51584e-30
4.62179e-29
3.06136e-42
-1.27994e-45
2.46844e-10
1.28251e-29
3.21289e-46
1.05263e-40
7.79885e-10
-3.64422e-26
-5.88561e-30
-9.41776e-27
2.19086e-32
-1.34361e-34
1.97751e-27
-3.07195e-30
-2.34423e-27
-8.48937e-31
-3.62394e-13
-9.84151e-38
-9.50169e-35
-9.71181e-13
3.37737e-11
-4.66966e-33
-5.90575e-11
-1.34139e-44
3.75337e-30
7.0549e-11
2.15151e-47
2.10683e-30
4.70791e-42
-6.96731e-49
2.71597e-10
6.93414e-41
8.08411e-30
9.08182e-27
2.41534e-36
3.27429e-29
-6.46374e-45
-6.25052e-28
-2.36509e-38
2.21049e-27
-1.21112e-39
2.20573e-28
-4.07388e-41
-1.32039e-30
-3.95145e-19
1.47071e-17
1.38859e-29
-2.03414e-26
7.56891e-26
6.03593e-27
-8.96459e-19
-8.09558e-29
1.35649e-20
1.66617e-27
1.79868e-27
-2.27648e-26
2.25567e-20
-4.57696e-22
7.61305e-26
1.97592e-28
5.65044e-26
-2.3681e-27
2.63129e-37
1.3322e-31
-6.252e-10
-2.04965e-15
2.79788e-28
-1.75721e-23
4.20665e-28
3.94269e-14
-4.82253e-29
1.79306e-34
3.72121e-10
4.58495e-12
-1.70731e-42
-1.20373e-27
3.12685e-44
-1.31685e-39
-1.60705e-32
4.81581e-39
3.77525e-10
-2.30386e-10
1.93371e-25
3.18039e-10
-1.24389e-25
1.63131e-24
1.51955e-15
3.5189e-30
1.40456e-35
-4.2713e-14
7.37649e-13
3.65081e-33
7.41292e-17
-1.70975e-27
7.27336e-10
-3.71904e-45
5.79428e-31
1.00483e-11
4.93528e-50
1.93526e-29
2.93901e-29
-6.9934e-29
-2.30029e-28
-7.67035e-28
-2.33415e-27
-2.28317e-27
-6.85466e-27
-1.0151e-27
7.58827e-28
4.32626e-26
1.47874e-25
2.78186e-25
7.88355e-25
4.9906e-25
2.20539e-24
1.8684e-24
4.23921e-24
-4.81345e-24
-1.9264e-23
-6.11341e-23
-1.9729e-22
-2.14173e-22
-6.02933e-22
-3.16996e-22
-6.29359e-22
1.8394e-21
6.68205e-21
1.57725e-20
4.87625e-20
2.29238e-20
1.4259e-19
7.59153e-20
3.94608e-19
2.44926e-19
1.05762e-18
7.72012e-19
2.77442e-18
2.36435e-18
7.23955e-18
6.95853e-18
1.88623e-17
1.92355e-17
4.84677e-17
4.97686e-17
1.17898e-16
1.24328e-16
2.56059e-16
3.04624e-16
4.92166e-16
-4.20693e-16
-1.76465e-15
8.87205e-16
-6.21295e-15
1.3145e-15
-1.98284e-14
-4.52877e-14
-1.19983e-13
-5.92013e-14
-2.93086e-13
-2.85973e-13
-6.56603e-13
-6.84781e-13
-1.36424e-12
-3.06947e-14
1.1913e-12
7.6877e-12
2.17971e-11
5.88087e-12
5.8918e-11
2.13311e-11
1.53916e-10
2.04372e-10
4.49688e-10
3.88354e-10
9.6854e-10
7.2286e-10
1.18589e-09
2.05002e-09
1.71537e-09
-3.30691e-09
-1.11408e-08
1.62769e-09
-3.34372e-08
-6.99886e-08
-1.67884e-07
-2.15138e-07
-4.52245e-07
-3.88257e-07
-9.17935e-07
-7.65841e-07
-1.38047e-06
-1.79994e-06
-2.21184e-06
-3.42975e-06
-3.13801e-06
2.40499e-06
9.25766e-06
-3.57338e-06
2.81869e-05
6.47484e-05
0.000150975
7.57596e-05
0.000338028
0.000475038
0.000978675
0.00113087
0.000728961
0.00195486
0.00151661
0.00378774
0.0030476
0.00711801
0.00591931
0.0129676
0.0111171
0.0228783
0.0201959
3.60835e-19
0.03905
0.035508
0.0645678
0.0630464
0.0604264
0.0284366
0.0499742
0.0194341
0.0357014
0.0995031
0.0870191
0.0107087
0.130509
0.101734
0.0211025
0.00399901
0.146101
0.10412
0.0092392
2.6666e-05
0.143391
0.0912855
0.00168472
0.119113
0.066861
-0.00158222
-0.00180195
0.0821774
0.0401541
-0.00190679
-0.00269511
0.0460722
0.0191362
-0.00167553
0.0201453
0.0067272
-0.00251793
-0.00106188
0.00620992
0.0013516
-0.00177976
0.000835701
-0.000189811
-0.000465676
-0.000887644
-0.00043806
-0.000401284
-0.000264443
-0.000264921
-0.000201626
-0.000127394
-0.000109887
-4.61809e-05
-4.50115e-05
-1.21671e-05
-1.38157e-05
-1.78145e-06
-2.87185e-06
3.08516e-07
-1.45456e-07
3.97414e-07
2.17613e-07
2.62049e-07
1.7572e-07
1.12808e-07
9.19642e-08
3.38279e-08
3.30876e-08
6.62602e-09
8.24927e-09
3.09035e-10
-9.32962e-05
1.16482e-09
-0.000261093
-0.00156122
-4.18458e-07
-7.5118e-10
-7.94935e-10
-0.000577763
-0.00256734
5.05748e-05
-1.34024e-09
-5.78115e-10
-0.00111467
-0.00395935
-0.00195045
-0.00568619
-6.33039e-10
-1.41382e-10
-0.00314876
-0.00767225
-9.28753e-11
4.70737e-12
-0.0047423
-0.00980712
-0.0066494
-0.0116708
2.38681e-11
1.76851e-11
-0.00207992
-0.00862805
-0.0129653
-0.0105982
-0.0135374
2.43469e-11
7.95841e-12
7.69316e-12
1.60463e-12
2.0783e-12
9.71756e-14
-0.0121299
-0.0116819
8.44296e-13
3.21957e-13
-0.0131834
-0.00535292
-7.63521e-14
-0.0131893
0.00711034
-1.14485e-14
-0.0110197
0.0267177
-5.30973e-14
-0.0106839
-0.0056167
0.0538072
-0.000556978
-3.01807e-14
0.00414422
0.087246
0.245245
0.313265
0.648786
0.741578
1.27909
1.35492
2.02753
2.03695
2.69753
1.38545
1.97035
1.37644
4.75747e-05
5.06136e-05
3.49333e-05
2.11371e-05
1.19225e-05
3.40638e-06
1.21994e-06
-5.95261e-07
-5.32299e-07
-5.21617e-07
-3.36473e-07
-1.69322e-07
-8.54877e-08
-1.19467e-08
-1.25727e-10
7.82637e-09
5.6833e-09
3.82031e-09
2.21445e-09
6.20914e-10
2.3141e-10
6.27893e-09
-8.41173e-11
-7.18344e-11
-6.30328e-11
-3.71984e-11
-1.40381e-11
-5.92181e-12
1.8322
1.30741
-2.09805e-14
5.63817e-13
7.27392e-13
8.48268e-13
5.10283e-13
-8.73214e-13
-1.68801e-14
1.64113
1.19435
8.60495e-09
2.19532e-13
9.6375e-14
-5.02822e-15
-3.51453e-15
-3.39809e-17
5.86265e-16
1.42083
1.0509
-1.01923e-15
-6.84409e-15
-5.40754e-15
8.29075e-17
4.18867e-16
5.84125e-16
-9.78806e-15
-5.95686e-15
1.19112
1.4772
0.89093
-2.61708e-15
-1.16554e-15
1.60639e-16
1.16192e-16
-4.97199e-15
6.47677e-18
-1.14563e-17
7.1998e-19
6.77266e-17
-4.54667e-16
6.11454e-17
6.01877e-17
3.25437e-17
4.4827e-17
1.70646e-17
4.064e-18
1.33618e-18
8.69576e-18
3.06191e-19
-4.17678e-19
-2.60276e-19
-3.9856e-20
-1.50691e-19
-7.10474e-20
-3.34077e-20
-7.79205e-20
-1.3067e-20
8.08732e-22
0.970107
0.730119
-3.85071e-20
8.35395e-22
1.13581e-21
-9.31612e-18
-1.36427e-17
0.763754
0.579238
0.509843
0.409172
0.325987
0.266268
-3.79621e-18
-2.63074e-18
-5.07405e-18
0.190578
5.61428e-22
2.09633e-22
0.15891
-1.31056e-19
2.82659e-19
0.446558
0.101481
2.0964e-19
2.80335e-19
5.91509e-19
2.55947e-19
8.76332e-19
4.20054e-20
7.68498e-23
-9.5007e-24
5.99096e-13
1.69886e-19
8.72793e-19
0.0867676
-0.000700116
-0.000702286
1.73562e-09
7.89497e-09
1.97662e-09
6.43808e-09
1.94472e-09
4.67754e-09
1.6762e-09
3.01719e-09
1.28718e-09
1.67697e-09
8.80695e-10
8.0747e-10
5.35706e-10
3.25541e-10
2.79016e-10
2.52325e-11
1.26612e-10
-1.49757e-10
4.56464e-11
-2.30778e-10
-1.88379e-12
-2.4386e-10
-2.6806e-11
-2.19733e-10
-3.58824e-11
-1.76223e-10
-3.58718e-11
-1.29162e-10
-3.04307e-11
-8.73713e-11
-4.32948e-12
-2.31851e-11
-5.4778e-11
-1.62001e-11
-3.18529e-11
-1.04749e-11
-1.7061e-11
-6.28239e-12
-8.3752e-12
-3.50367e-12
-3.73604e-12
-1.79625e-12
-1.43339e-12
-1.3656e-12
2.29725e-13
7.07222e-12
5.95243e-12
7.17068e-13
4.38401e-12
2.01299e-11
1.2598e-11
2.96547e-12
7.53961e-12
2.71441e-11
1.50517e-11
4.33757e-12
8.08661e-12
-1.84781e-12
2.40775e-12
4.21723e-12
1.27594e-11
6.31764e-12
2.13819e-12
3.04986e-12
8.23859e-12
3.80842e-12
9.46198e-12
4.20859e-12
1.72147e-12
1.83382e-12
4.17664e-12
1.76961e-12
7.83901e-13
7.36116e-13
3.29309e-13
3.00213e-13
1.36034e-13
1.20095e-13
3.77299e-12
5.52084e-14
4.71518e-14
2.19848e-14
1.81756e-14
3.60993e-14
1.34876e-14
6.88115e-15
4.95329e-15
8.98271e-15
2.5598e-15
1.78877e-15
-2.63069e-10
9.36083e-16
6.35454e-16
-7.33508e-24
-7.31791e-24
-1.48716e-23
3.36639e-16
0.0489272
-2.74919e-24
-0.000999077
-0.000802111
6.13504e-20
6.3391e-19
0.0432005
-6.27483e-24
-0.0013319
-0.00085018
2.22148e-16
1.19104e-16
-1.01053e-24
1.12255e-25
1.65119e-24
2.39217e-14
0.0211217
-0.0016017
-0.000822558
-3.44256e-20
2.84852e-19
8.73791e-26
8.44912e-26
-0.00174532
-0.000731648
7.64506e-17
4.14724e-17
6.00287e-17
0.0194678
0.0363723
1.17759e-09
-0.00175776
-0.000591875
-0.00162284
-0.000428644
-7.08271e-05
-1.10708e-05
3.4488e-05
4.46478e-05
3.34864e-05
5.12556e-05
2.94365e-05
2.47821e-05
7.87035e-06
4.5018e-06
6.94894e-08
-7.06328e-07
1.79292e-06
-7.1772e-07
-7.62581e-07
-3.56545e-07
-2.50557e-07
-5.17191e-08
-1.2348e-08
1.29471e-08
1.53843e-08
9.28815e-09
7.07292e-09
1.55239e-08
1.89225e-09
4.35797e-09
1.25217e-08
-8.77407e-20
-2.03451e-20
0.00786671
2.11515e-17
0.0169779
0.0293086
-1.44138e-09
1.42175e-17
4.06612e-26
1.04723e-26
0.0140815
0.0226642
7.33553e-18
2.85049e-17
2.1277e-09
8.56777e-09
-1.20914e-19
-3.84777e-20
-2.05609e-19
0.0111573
0.0168552
4.80022e-18
2.50489e-18
1.32093e-16
-0.00259786
3.37673e-10
8.8596e-18
8.48569e-11
2.6037e-23
3.46166e-27
-1.07555e-27
-1.49973e-27
-8.6975e-28
-0.00274768
-1.81086e-27
0.0084733
0.0120759
6.16115e-10
4.82745e-09
-2.3516e-20
-1.08028e-21
-2.04787e-07
1.59668e-18
8.42487e-19
-4.21922e-28
-8.2473e-29
0.00505076
0.00618347
0.00834854
-1.40724e-05
0.0193679
-2.19384e-10
2.01653e-09
-3.93856e-10
2.64096e-21
1.72191e-21
0.00434495
0.00557863
0.00983863
0.00629869
0.0103471
0.00360622
5.23392e-19
2.79188e-19
4.19146e-19
-2.6209e-29
1.28124e-29
1.4043e-19
3.37819e-09
1.19506e-10
0.00392176
0.00225887
1.73252e-21
3.82101e-22
-4.75622e-10
3.91801e-10
-0.00123103
8.62971e-19
9.11856e-20
1.97058e-19
4.63603e-20
7.59231e-30
3.96844e-30
4.36143e-11
0.00742656
0.00206787
0.00143355
-5.91075e-06
-0.000371072
-0.000410536
-0.000535705
-0.000277208
-0.000300155
-0.000106502
-9.11251e-05
-1.80928e-05
-5.72261e-06
5.56591e-06
9.65707e-06
-2.87305e-05
0.00237392
0.0013739
1.17401e-22
-3.41702e-23
1.08912e-21
-4.48517e-10
-3.91085e-10
4.57423e-09
1.63626e-09
1.45653e-08
8.04033e-09
2.65245e-08
1.95748e-08
2.98939e-08
2.8918e-08
-4.25648e-08
1.19363e-08
-3.00735e-07
-1.21025e-07
-8.20075e-07
-4.57607e-07
-1.36124e-06
-9.6232e-07
-1.44453e-06
-1.30796e-06
-6.31895e-07
1.47866e-06
-4.8548e-07
-7.3866e-07
0.0525067
0.150228
5.30334e-06
5.57447e-06
6.60182e-10
-1.73208e-10
1.10665e-18
2.06883e-19
6.35476e-18
3.88826e-18
1.94456e-17
1.81935e-17
3.26536e-17
4.35464e-17
4.90981e-21
2.93616e-20
1.50857e-20
1.99609e-30
4.25347e-30
1.36161e-31
4.58946e-31
-1.38473e-31
-2.36685e-31
1.96093e-06
1.53374e-06
1.05526e-05
4.14852e-06
-6.82316e-11
3.71638e-09
-6.05112e-23
4.08968e-22
-9.77188e-07
0.00139534
0.000813313
0.000749551
-6.67749e-32
2.30836e-07
-5.61941e-09
0.000446184
-7.69862e-32
2.74837e-05
1.45636e-05
9.32354e-21
4.84001e-21
-6.07149e-07
-1.33507e-31
0.000383016
4.70365e-07
-1.26895e-07
-1.6484e-07
-1.93074e-07
-1.7231e-07
-3.20575e-07
-1.63611e-07
-5.31535e-08
-3.43454e-08
-1.4148e-07
-1.59132e-08
-1.02595e-07
-5.66955e-10
-6.21824e-08
9.18422e-09
-2.65619e-08
1.37729e-08
7.70123e-09
6.74046e-09
1.4067e-08
5.25268e-09
1.13642e-09
4.0168e-10
3.43255e-09
-8.74573e-11
-2.66149e-10
-2.47114e-10
-1.09685e-10
-7.59702e-11
1.86604e-09
-1.09602e-11
-6.26267e-13
4.55126e-12
4.21792e-12
4.74615e-12
3.53548e-12
1.26567e-12
6.92323e-13
6.15652e-12
-1.46541e-09
8.89275e-16
-7.8823e-14
3.51953e-12
0.000468638
0.000258181
-1.20997e-22
-7.42767e-23
4.58627e-05
2.9436e-05
6.56501e-05
-5.41994e-33
2.92042e-21
5.25093e-21
1.53148e-21
2.37568e-21
7.59418e-22
-6.35076e-14
-5.15895e-14
-1.23424e-10
-1.12928e-10
0.000262556
0.000145528
-1.36288e-22
-2.66759e-22
-1.86193e-32
1.10501e-21
-1.66444e-14
-8.21422e-15
-3.76121e-14
-2.89012e-15
-2.41547e-14
7.65973e-17
1.31686e-15
1.06596e-15
-1.26925e-14
2.73906
3.23249
3.34483
3.57953
3.73826
3.58058
3.80808
3.37792
3.64403
2.91197
3.20597
2.26063
9.22482e-19
-1.02571e-14
-4.80873e-15
-0.00929775
5.38043e-05
4.06396e-05
1.68672e-05
2.65581e-05
8.48638e-06
1.62885e-05
2.95422e-05
2.16295e-05
8.89726e-06
1.33796e-05
1.41088e-05
1.38131e-05
-2.53419e-05
-2.09935e-06
1.991e-26
2.54559
-0.000102164
-4.00344e-05
4.29386e-16
2.49223e-16
-5.11407e-15
-3.28747e-15
9.02577e-22
1.12499e-17
-1.4065e-17
-2.62043e-14
4.10777e-33
3.56905e-22
-1.16084e-15
-1.7355e-15
2.54709
1.56273
-5.23033e-11
-6.55784e-11
-0.000206769
-9.88741e-05
9.90769e-06
0.000142953
7.99559e-05
2.68688e-23
-2.32074e-23
-1.54489e-23
-8.85519e-24
-9.00065e-24
-1.64932e-24
-2.81772e-24
-5.7447e-26
-4.51934e-25
7.7855e-26
3.26858e-27
3.94416e-26
2.79682e-26
1.0882e-26
1.31211e-26
1.55432e-27
1.14653e-25
3.37174e-27
9.58102e-27
4.26205e-27
3.49067e-27
-7.75089e-29
-3.42196e-28
3.23132e-27
-8.00207e-27
-1.57323e-28
-1.22858e-28
1.46939e-27
-2.07177e-26
-1.65711e-29
2.69879e-30
-1.59765e-27
-2.78417e-26
4.06281e-30
-8.00941e-11
-6.44202e-11
2.49626e-12
5.05487e-30
-9.83243e-23
-3.08515e-22
6.78799e-33
2.26171e-15
-6.84524e-16
-9.19122e-16
-5.34644e-16
-2.80419e-16
-2.30545e-16
-5.39226e-17
-5.92327e-17
-4.319e-18
-9.34341e-18
1.37702e-18
-2.45242e-19
1.00954e-18
4.5135e-19
-1.38928e-18
4.00012e-19
9.63224e-20
-2.03283e-18
-1.69533e-19
-2.10351e-18
-3.26817e-19
-1.71794e-18
-3.65658e-19
-1.16799e-18
-3.30015e-19
-6.06916e-19
-1.25189e-20
-2.35405e-19
-2.42306e-19
-1.3611e-19
-5.92438e-20
-5.77036e-20
4.68072e-20
-8.56731e-19
-1.97543e-20
9.9489e-20
7.41593e-19
5.88049e-19
1.0818e-19
3.93676e-19
-4.35584e-20
1.07702e-16
1.13635e-18
4.45629e-19
2.25921e-19
1.44502e-19
1.02103e-19
3.16904e-22
3.63324e-20
-6.69212e-20
-5.30873e-11
1.35204e-10
4.25888e-19
4.87928e-22
8.4001e-21
-8.27864e-20
-5.55307e-19
-3.89427e-19
1.24992e-30
-7.42521e-20
-2.42605e-19
-7.5799e-19
-3.13294e-19
-1.58235e-17
-1.19453e-17
-1.93855e-17
-8.22161e-18
-1.70952e-17
-5.02252e-18
-6.01509e-19
-2.96746e-20
2.32494e-19
1.74437e-19
1.81802e-19
1.21997e-19
3.53224e-20
1.44013e-20
7.56728e-20
4.21733e-21
-2.52065e-21
-2.00334e-21
-1.58834e-22
-1.39512e-21
-4.96717e-22
-2.46701e-22
-8.92366e-22
-9.23498e-23
1.9584e-23
1.7064e-23
-4.86848e-27
-2.51392e-26
-1.28448e-19
-1.0471e-19
-1.10372e-20
1.53369e-19
1.6204e-18
1.25875e-18
1.78424e-19
8.51713e-19
3.62975e-18
1.93905e-18
5.22081e-19
9.05264e-19
2.00463e-18
6.27644e-19
3.78824e-19
1.38603e-19
1.28732e-19
-3.80009e-20
-8.95333e-19
-7.0132e-19
-8.02192e-20
-4.72913e-19
-2.36262e-18
-1.3015e-18
-4.90978e-18
-2.28908e-18
-6.6939e-19
-9.88252e-19
-3.21781e-19
-3.88261e-19
-5.9294e-32
1.29149e-30
-3.2707e-11
-4.29353e-12
1.09302e-12
2.20246e-12
2.30066e-12
9.29923e-13
5.19594e-13
4.79924e-14
-3.9346e-14
-3.8768e-14
-3.63804e-14
-1.19276e-14
-5.35102e-15
2.24583e-16
9.76098e-16
-8.7408e-16
9.58343e-16
1.15494e-15
4.45966e-16
7.42167e-16
1.35164e-15
-5.14714e-22
-2.607e-07
6.23327e-06
2.03361e-20
-7.08563e-27
-1.43863e-26
1.59275e-22
9.97054e-33
-1.63433e-31
5.27368e-28
7.56789e-05
0.000123858
4.27808e-05
4.19498e-05
2.25506e-05
4.3879e-31
3.54168e-30
-5.71121e-32
4.44121e-16
1.20525e-15
-4.27688e-23
-2.34797e-22
1.0077e-24
1.92175e-33
9.70892e-34
-1.8811e-17
9.55585e-24
5.36879e-24
-1.44365e-19
-1.39304e-19
-0.000295272
-0.000160613
-6.27352e-18
-0.000396946
1.8081
2.75884
0.94984
4.7302e-19
7.96033e-20
3.92187e-20
-8.50318e-21
-2.37992e-20
-1.14291e-20
-1.4135e-20
-2.6445e-21
-3.00007e-21
-2.07193e-22
-4.83094e-22
5.97455e-23
-1.95398e-23
4.13803e-23
1.79894e-23
1.52204e-23
-6.95265e-27
0.0181058
3.18401e-35
3.59533e-36
-1.48114e-21
2.00929
2.87392
-2.745e-11
3.02793e-10
-5.97866e-20
-4.17502e-20
-3.36034e-20
1.45681e-20
2.04833e-22
6.81047e-25
1.15464e-25
-1.06189e-20
2.05232e-20
1.62217e-19
9.58959e-20
1.55589e-20
5.26641e-20
2.08066e-05
1.00839e-23
1.18227e-32
-3.48942e-31
2.0588e-27
0.00221727
-1.55811e-07
-2.74572e-08
-3.64573e-10
0.00206683
0.00752096
6.2188e-06
7.45287e-18
6.06884e-05
2.87401e-24
8.95482e-09
-4.3169e-05
-8.05451e-05
-1.66058e-05
-3.71437e-05
-6.98147e-23
-1.52832e-17
0.760868
1.13673e-22
5.1256e-23
3.5711e-23
-1.84174e-23
1.69884e-20
6.07146e-21
1.27102e-20
5.04295e-21
-2.6283e-21
3.43808e-22
-2.35571e-20
-6.52408e-21
-4.14135e-20
-1.2751e-20
-4.08729e-20
-1.16499e-19
-6.91512e-20
-1.43149e-19
1.33785e-19
5.92226e-19
2.2477e-20
4.29589e-19
1.21235e-19
6.14387e-19
1.90331e-19
5.89934e-19
1.98637e-19
3.90856e-19
1.05826e-18
1.3694e-19
5.98631e-20
-5.14042e-19
5.75502e-20
-3.22163e-18
-1.16747e-17
-1.64973e-17
-5.29749e-17
3.95264e-22
-4.9913e-18
-0.00846605
3.38747e-07
-0.00655566
2.14527
2.88055
2.20235
2.80639
2.18577
2.63984
-1.26811e-17
6.30411e-05
9.33524e-05
-5.22362e-06
-1.56691e-05
-1.27484e-31
-5.25867e-32
-3.09579e-24
-1.04204e-22
-5.98453e-22
-4.63633e-22
1.81598e-16
7.76201e-16
-5.30535e-18
-4.79349e-32
-3.4388e-35
-1.73269e-35
1.12293e-05
1.18371e-05
6.58832e-33
3.14583e-24
-1.95982e-25
-4.26372e-20
1.62659e-23
1.10688e-23
-0.000330587
-1.67346e-17
-5.31398e-18
2.09872
-5.58433e-05
-2.69939e-05
-1.49714e-16
-2.93111e-16
2.09633e-24
9.74694e-21
2.73909e-20
0.380257
0.275017
3.16221e-10
4.7815e-19
-8.71347e-22
-1.02752e-21
-1.34507e-25
2.39714
-0.00419542
-0.00820749
4.55536e-05
5.96186e-05
1.24941e-23
5.51739e-21
1.36364e-20
5.09175e-24
3.3858e-24
-5.84594e-36
-2.79532e-36
0.101026
0.0598394
-0.000335933
2.12901e-11
4.72093e-10
-3.7214e-17
5.90667e-06
-1.1411e-32
3.07897e-24
4.57499e-24
9.70508e-06
-4.81005e-26
-9.63692e-07
-2.76556e-17
-1.7914e-17
-2.76876e-33
6.06343e-06
-3.39638e-11
0.00663768
-0.00316444
-0.0108068
5.97615e-16
-1.46547e-17
2.91945e-21
6.54105e-21
-1.92741e-32
-6.50556e-05
-3.4123e-05
-1.28485e-17
-4.37792e-18
-1.02606e-25
1.94364
-0.0107796
-0.0086417
-0.00854995
-0.00077233
2.69241e-20
1.21281e-20
3.55369e-25
-1.13444e-26
1.3134e-21
2.21926e-24
1.11977e-24
3.03257e-06
8.67794e-34
7.05016e-24
1.63203e-37
1.18812e-37
-1.25303e-36
7.78705e-38
-5.09685e-37
-1.16632e-35
6.85206e-23
-2.44047e-26
8.0465e-28
2.10411
-1.52665e-10
-7.24725e-11
2.58137e-14
4.72047e-38
-1.96538e-37
2.77169e-38
3.03628e-21
5.32117e-21
1.57262e-24
1.02231e-24
2.07202e-24
-1.0806e-15
-9.8652e-16
-3.34105e-14
2.49339e-21
-1.06846e-21
-8.71364e-22
-1.74687e-21
7.51678e-08
-4.07068e-17
-1.6602e-16
-1.37605e-16
-5.11491e-16
-4.51167e-16
-1.54131e-15
-1.43549e-15
-4.54106e-15
-4.43182e-15
-1.30239e-14
-1.32714e-14
-3.58343e-14
-3.88234e-14
-9.54251e-14
-1.11641e-13
-2.47161e-13
-3.12955e-13
-6.22896e-13
-8.51081e-13
-1.53962e-12
-2.21768e-12
-3.7151e-12
-1.0795e-12
-1.34113e-12
-8.47846e-12
1.35905e-12
1.83601e-11
6.03489e-11
1.71025e-11
1.87759e-10
2.65058e-10
7.4566e-10
5.61196e-10
2.04739e-09
2.16889e-09
5.67112e-09
5.26836e-09
1.32131e-08
1.45212e-08
3.24706e-08
2.60177e-08
6.14232e-08
7.81065e-08
1.41925e-07
9.98236e-08
2.21788e-07
3.20828e-07
4.81782e-07
7.09198e-07
1.02268e-06
6.26731e-07
1.27763e-06
2.12031e-06
2.54145e-06
4.29289e-06
4.94194e-06
7.10803e-07
-8.30946e-13
-2.35789e-14
8.48324e-06
9.40078e-06
-1.02549e-14
5.06774e-06
9.30969e-06
1.75121e-05
1.66583e-05
8.02229e-06
1.36871e-05
2.90289e-05
2.268e-05
4.91832e-05
3.64669e-05
8.09786e-05
5.68245e-05
0.000129404
8.57106e-05
0.000200499
0.000124966
-1.25182e-15
0.000300876
6.66281e-06
0.000175839
3.3139e-05
5.91694e-06
9.7756e-05
0.000436759
0.000238335
8.21996e-05
-0.000245232
2.76619e-05
3.00517e-05
1.34194e-33
3.03445e-06
-1.11027e-17
-2.44144e-18
1.36818e-21
-4.94628e-22
4.79351e-25
1.52414e-06
4.68208e-34
1.05286e-24
-1.43659e-24
-1.17313e-25
-2.835e-27
8.60503e-11
5.85008e-10
1.35863e-09
1.03599e-09
7.66741e-10
-5.95517e-17
-2.50815e-25
0.0220217
2.3418
1.1988e-19
1.50574
-0.00997767
-0.0106466
5.57996e-16
-0.00736139
-0.00514974
4.54913e-20
6.11483e-22
2.41543e-22
6.31196e-26
4.49208e-25
1.50666e-27
-9.60557e-27
1.25316e-27
-4.26658e-05
-3.10517e-05
-1.67764e-05
-1.83869e-05
-7.8615e-06
-9.49616e-06
-7.26986e-18
-2.58683e-18
1.9748
1.73759
-3.11481e-24
0.0310021
1.83718e-06
1.32152e-06
1.1533e-06
4.02592e-10
-1.4564e-18
-9.05725e-19
-4.66843e-19
-3.11637e-19
-1.45302e-19
-1.04547e-19
-4.41932e-20
-3.41909e-20
-1.3226e-20
-1.09278e-20
-3.88581e-21
-3.36918e-21
-1.11594e-21
-1.01336e-21
-9.44481e-22
-3.14284e-22
-2.98061e-22
-6.81947e-22
-2.1504e-22
-1.56644e-19
-8.6936e-23
-3.42917e-22
-1.13163e-22
-3.53917e-11
3.2573
-6.4435e-18
-9.48631e-18
-1.03079e-18
-2.51357e-18
2.19888e-19
3.42847e-05
-0.000139304
-0.00102956
0.189706
-6.84904e-27
0.219388
1.24272e-15
-9.14502e-10
-1.09481e-08
0.000101972
2.83608e-05
0.000310469
6.12041e-25
1.16541e-24
-1.3703e-15
2.54564e-16
-2.19088e-15
4.44254e-17
4.78204e-17
-1.6034e-21
2.69601e-38
-7.84595e-38
1.43263e-06
-2.05187e-20
-7.36377e-26
3.5427e-25
-3.06534e-24
-6.94055e-26
3.76317
2.16605e-12
-3.88723e-12
7.88176e-12
-0.0052402
-0.00262284
-0.00215563
-9.58971e-06
-0.00856852
-0.0102967
3.30358e-16
2.04422e-16
2.11548e-20
5.55503e-07
2.83463e-07
-3.38814e-06
-4.42052e-06
1.48443e-06
7.49629e-07
1.28138e-05
2.039e-34
1.17102e-33
4.84354e-36
-1.70014e-22
-9.91351e-22
-2.63859e-19
-4.63861e-18
-6.87886e-27
-1.41191e-25
-3.42882e-24
2.12291e-08
3.29868
-0.00344584
-5.13713e-24
-8.42893e-18
1.60681e-19
-5.59864e-26
7.22538e-28
1.4271e-28
-0.00070202
-0.00041763
2.03634
1.64477
-1.76012e-20
-1.56678e-08
-4.93092e-08
0.000426295
3.04254e-05
5.26397e-06
9.79247e-15
7.0182e-22
2.61018e-22
1.4732e-38
-3.4227e-38
-5.27883e-37
-2.74604e-37
-6.51558e-37
-3.99563e-37
3.50766e-36
1.3848e-36
1.52049e-35
7.89284e-36
1.62662e-35
1.06479e-35
-9.00922e-35
-3.53687e-35
-4.0374e-34
-2.10833e-34
-5.31791e-34
-3.15965e-34
1.65445e-33
6.96155e-34
1.03931e-32
5.27668e-33
1.65167e-32
2.96254e-32
-6.40217e-32
-2.68927e-32
-4.90389e-31
-2.37945e-31
-8.27851e-31
-1.60901e-30
2.10096e-30
9.03047e-31
2.05327e-29
4.41008e-29
7.45822e-29
3.25444e-29
-5.344e-29
-2.02097e-29
-6.51634e-28
-1.57018e-27
-2.43968e-27
-9.76379e-28
-3.90042e-28
6.79301e-28
3.21593e-26
1.09546e-26
7.0254e-26
1.62839e-25
1.33037e-25
7.37786e-26
-4.41814e-25
-1.31247e-24
-1.48932e-25
-4.95984e-24
-1.12515e-23
-1.44368e-23
-2.76944e-23
4.32662e-23
1.3397e-22
6.81181e-22
1.55503e-21
2.86462e-22
2.29435e-21
4.591e-21
-2.26125e-21
-1.0098e-20
-7.10731e-20
-1.78906e-19
-2.63465e-19
-6.03384e-19
-1.12077e-19
-4.10147e-19
-1.24461e-18
9.0578e-20
1.58145e-18
4.05281e-22
-2.301e-18
6.49274e-18
3.69285e-17
8.9234e-17
2.09346e-17
1.97915e-16
2.79726e-16
5.33595e-16
4.28389e-16
9.33296e-16
-7.57576e-16
-3.01459e-15
1.52141e-15
-9.38139e-15
-3.48477e-14
-7.5008e-14
-2.6593e-14
-1.56725e-13
-1.87944e-13
-3.12765e-13
2.0677e-13
9.05004e-13
-7.08927e-14
4.28457e-12
1.01253e-11
1.70709e-12
2.84057e-12
2.17312e-11
2.95484e-11
5.49092e-11
2.07396e-11
-1.13444e-11
4.36885e-11
-3.41855e-10
-8.5658e-10
-1.79943e-09
-3.51179e-09
-2.01542e-09
-6.6285e-09
-6.17596e-09
-9.10781e-09
-1.20732e-08
-1.10761e-08
3.45192e-08
9.85584e-08
2.72007e-07
5.68942e-07
-8.78241e-10
-2.12408e-08
7.66894e-07
1.34204e-06
1.11534e-06
4.23388e-07
1.06398e-06
1.36944e-06
7.91862e-35
2.1584e-27
1.54805e-10
7.21707e-12
5.20602e-12
8.13682e-12
3.11491e-12
6.5604e-12
1.35439e-12
4.16819e-12
4.06963e-13
2.14293e-12
-1.22048e-13
-9.5244e-15
8.33702e-13
-1.10802e-13
1.81665e-13
2.8516e-12
1.27272e-12
5.14818e-12
3.20254e-12
4.73836e-12
4.57006e-12
-1.67318e-11
-7.75823e-13
-7.62007e-11
-2.90964e-11
-1.57623e-10
-8.61985e-11
-1.95985e-10
-1.43343e-10
1.22456e-10
-1.08133e-10
1.31442e-09
4.00599e-10
-1.7235e-17
4.85944e-25
1.11094e-24
-5.598e-23
-3.10116e-23
-3.64746e-23
-1.3765e-23
-5.76713e-23
-1.15788e-23
-5.0805e-24
3.20017e-24
3.93147e-26
-1.8117e-18
-2.70132e-18
1.14804e-17
4.3845e-17
1.60931e-14
1.42099
1.29783
3.36935e-25
6.00888e-25
9.51796e-16
5.18224e-16
1.17714e-05
6.79156e-05
-6.91482e-16
-1.91827e-16
-4.4279e-18
-5.52469e-19
-6.50521e-18
-2.67111e-19
-0.0053341
1.83795e-12
-2.36006e-16
-5.29316e-16
-2.81088e-21
-2.51059e-21
2.84351e-27
5.59485e-27
2.4637e-25
-1.47022e-18
-8.2446e-18
4.28716e-13
-1.33824e-06
-1.97636e-06
-8.21442e-11
9.78448e-36
4.84246e-34
4.85539e-24
3.16745e-23
4.13807e-19
-1.18579e-18
3.14504e-19
-4.48452e-25
-2.86162e-24
-9.23551e-36
9.49188e-08
-2.77693e-09
3.30502e-12
4.68527e-06
5.27957e-06
7.1199e-07
3.61621e-07
4.26859e-29
-1.83061e-29
-2.11956e-29
3.41624e-09
1.58439e-09
-9.44307e-24
-3.90682e-24
-1.86551e-24
-1.02211e-24
-5.68857e-09
-3.35999e-17
2.33658e-18
-3.61336e-19
1.16132e-23
2.7237e-24
-2.02952e-25
6.05969e-25
3.6772e-24
9.31529e-25
-0.00292178
1.86736e-12
3.72129e-12
-4.69344e-08
-7.35232e-08
-1.86316e-08
-7.90429e-34
3.18528e-06
-0.00675122
-0.00895747
-0.00376136
-0.00650755
-0.00875919
0.0139286
0.00214611
0.0660505
0.0332527
0.165691
0.0975783
0.0139533
0.0533305
-8.57957e-16
-1.26539e-15
-2.12369e-06
-6.73164e-06
-1.71864e-34
6.10879e-37
-2.69805e-18
-9.685e-18
4.85017e-22
2.03439e-21
-4.48292e-07
7.11993e-05
4.35363e-25
-2.35524e-24
1.09279e-24
-2.46293e-23
-1.25643e-23
8.8725e-18
3.55628e-17
-1.87035e-23
-0.000598758
-1.43884e-06
-1.61707e-07
1.53042e-32
2.65883e-32
4.24566e-33
8.65232e-33
-2.51824e-34
-2.91698e-35
1.5417
1.17455
1.28475
0.0689615
1.23228e-19
3.09285e-20
1.20998e-20
0.00512402
4.65242e-18
3.09118e-17
1.00658e-20
-6.54232e-14
-4.76627e-14
-1.00162e-13
-9.07896e-14
1.49382e-13
-2.14702e-14
1.42471e-12
7.05129e-13
3.92444e-12
-7.99912e-14
2.86214e-13
-8.04789e-14
6.71929e-14
-6.51309e-14
-3.05783e-14
9.02139e-13
-4.79291e-14
-1.85092e-09
1.7361e-05
7.56621e-06
1.30061e-05
5.28943e-06
8.68054e-06
3.28012e-06
5.08698e-06
1.76667e-06
2.53996e-06
2.02677e-06
7.87436e-07
9.96187e-07
3.42388e-06
1.07215e-06
4.25226e-06
9.07423e-07
4.59798e-06
4.65748e-07
-1.93849e-07
-6.32741e-07
-4.06513e-07
-1.18542e-06
-1.91584e-06
-1.87292e-06
-7.66032e-07
-9.76525e-07
-2.66927e-06
-1.08193e-06
-2.5659e-07
-1.80195e-07
4.58908e-09
6.3733e-08
4.2262e-08
6.07445e-08
-3.4225e-06
1.30835e-07
7.70982e-08
2.32196e-08
1.98878e-08
2.33324e-08
2.64549e-09
-5.78321e-10
1.89574e-07
0.930938
0.871073
-4.4285e-12
1.79973e-11
1.70073e-25
9.62393e-26
7.39446e-22
2.6201e-22
9.33161e-23
8.87722e-23
3.20029e-23
2.8724e-23
-1.67754e-38
1.04954e-23
-1.70457e-09
-2.63009e-09
-4.27207e-09
-3.31447e-09
-3.36113e-34
2.36404e-07
-1.06722e-09
-8.90147e-10
1.39202e-27
1.08384e-27
-9.59459e-30
7.98331e-37
-2.93764e-21
-3.12117e-21
-8.38626e-25
7.16831e-25
-4.739e-07
-8.18825e-07
-1.28343e-07
-5.22604e-14
-3.2084e-14
-1.09803e-14
-4.82422e-15
5.11075e-16
6.48791e-16
-6.9184e-31
-1.8067e-30
-1.17052e-22
-1.00693e-22
5.29367e-09
2.99747e-09
5.91159e-10
1.5405e-09
3.53654e-09
2.37733e-09
-1.34672e-09
-5.48535e-11
0.0716875
5.46911e-16
3.4629e-16
8.62734e-18
4.62558e-19
0.00359946
0.0264359
-3.52856e-09
-5.75383e-10
1.76492e-11
1.51621e-10
-1.49393e-10
2.53416e-10
1.04066e-10
1.00211e-10
2.97166e-10
8.01424e-11
1.03573e-11
-1.83149e-12
4.85664e-11
-1.13291e-11
-6.67171e-12
-6.6754e-12
-1.68949e-11
-5.89991e-12
-1.741e-11
-4.22369e-12
-1.61318e-11
-2.19722e-12
2.76114e-13
6.61245e-13
3.26831e-13
2.94868e-13
-1.32492e-11
7.11733e-14
3.3035e-14
2.33792e-13
1.29675e-15
-1.21704e-14
-1.24678e-14
-1.8754e-14
-1.12218e-14
-3.13893e-15
-0.00240314
-0.000788349
2.05392e-15
1.03779e-15
-2.61614e-15
-2.81213e-15
1.0602e-13
-1.57604e-08
-2.18237e-08
6.63684e-10
3.70009e-19
2.59322e-19
-5.54053e-35
2.14774e-35
1.77144e-06
2.10679e-06
3.35637e-07
1.7179e-07
1.69932e-07
8.07052e-08
2.62884e-23
8.19531e-24
8.87592e-24
2.35055e-23
-1.39478e-21
-9.16711e-22
2.19168e-07
-2.75756e-22
-2.72728e-25
1.60009e-24
1.19619e-23
9.352e-24
3.64415e-24
2.8274e-25
1.19213e-06
-2.97477e-30
3.02999e-30
-2.60381e-14
1.24029e-09
9.51637e-26
7.30381e-09
6.00978e-07
2.09764e-24
6.36348e-08
2.26385e-08
1.62249e-18
-4.41098e-20
-0.00127388
0.0113304
0.0682677
0.0361477
0.0035614
0.017558
3.01237e-17
6.3568e-18
0.844904
1.00286e-16
3.25771e-17
3.20955e-16
1.32748e-16
9.93781e-16
4.87304e-16
2.99281e-15
1.67832e-15
5.16188e-12
5.94373e-12
1.98674e-12
-4.41372e-11
-8.83065e-11
-2.53593e-10
-1.71545e-10
-4.13884e-10
-4.50295e-10
5.78436e-10
1.88504e-09
9.00498e-09
1.3597e-08
2.53256e-08
2.99396e-08
1.05019e-08
-3.24881e-08
-3.14958e-07
-5.40958e-07
2.00893e-08
-3.34801e-10
-1.28746e-06
-1.62694e-06
-9.31437e-07
-8.22307e-07
-1.91703e-06
-1.78e-06
-3.0828e-07
-2.04428e-06
8.75294e-15
5.43848e-15
2.46764e-14
1.68132e-14
6.70162e-14
5.00453e-14
1.73141e-13
2.00505e-21
-5.54572e-10
1.23776e-27
-1.6106e-29
-3.86634e-18
-4.35545e-36
-2.80781e-36
1.76517e-24
5.89852e-24
1.32942e-23
4.14533e-24
5.83456e-29
-1.10672e-28
-5.49536e-34
2.75793e-24
-4.90742e-25
-2.40617e-23
-2.56193e-23
-2.80291e-24
-2.06551e-23
1.12567e-05
2.10455e-05
2.68303e-21
9.82124e-21
-2.89222e-23
1.2406e-29
9.19573e-29
-1.18169e-25
5.35796e-17
1.82553e-16
0.863429
0.969119
8.55247e-10
-4.1913e-26
-1.95914e-24
0.316674
0.0737792
0.0402353
-1.40035e-06
-7.02588e-07
1.02048e-16
4.07376e-17
0.685886
1.30577e-21
-4.52389e-08
5.7395e-08
-4.60494e-08
2.62793e-13
1.01477e-12
4.06328e-09
1.44767e-13
4.36283e-13
-3.30599e-06
-5.43172e-07
2.14696e-35
0.543144
0.522508
0.785542
3.93498e-15
-6.8433e-15
-5.65684e-15
7.83245e-26
1.20439e-25
-9.06117e-15
-2.08055e-05
-9.2041e-06