/*--------------------------------*- C++ -*----------------------------------*\
  =========                 |
  \\      /  F ield         | OpenFOAM: The Open Source CFD Toolbox
   \\    /   O peration     | Website:  https://openfoam.org
    \\  /    A nd           | Version:  6
     \\/     M anipulation  |
\*---------------------------------------------------------------------------*/
FoamFile
{
    version     2.0;
    format      ascii;
    class       volVectorField;
    location    "12096000";
    object      Uw;
}
// * * * * * * * * * * * * * * * * * * * * * * * * * * * * * * * * * * * * * //

dimensions      [0 1 -1 0 0 0 0];

internalField   nonuniform List<vector> 
11831
(
(-9.41627e-09 -8.40165e-09 -1.8482e-25)
(3.14552e-09 1.55339e-09 0)
(-2.06635e-08 -1.73786e-09 0)
(-1.92844e-07 -1.13814e-07 0)
(-9.27499e-08 -5.39816e-08 2.94733e-25)
(-7.49682e-08 3.55828e-08 7.97358e-25)
(-2.24498e-08 8.51017e-09 1.44447e-25)
(-6.77494e-08 3.50423e-08 6.23711e-25)
(-1.40675e-08 8.54603e-09 -1.55895e-25)
(-3.45888e-08 2.73192e-08 7.31064e-26)
(-4.24094e-08 1.67497e-08 -6.21587e-25)
(-3.83604e-08 1.67254e-08 4.41997e-25)
(-3.81259e-08 1.63191e-08 2.64628e-25)
(-3.98629e-08 1.67171e-08 -1.62706e-25)
(-4.2332e-08 1.79207e-08 3.22694e-31)
(-4.54852e-08 2.42665e-08 0)
(-3.31529e-08 1.42679e-08 4.03127e-25)
(-5.47825e-08 2.52103e-08 3.96942e-31)
(-6.55576e-08 2.41464e-08 0)
(-3.13938e-08 1.16719e-08 -2.78207e-31)
(-3.21027e-08 1.59356e-08 -2.67757e-31)
(-3.51466e-08 1.12609e-08 -1.78291e-25)
(-6.49947e-08 2.91803e-08 -5.68931e-25)
(-2.26893e-08 6.32284e-09 1.46932e-25)
(-3.23947e-08 2.57037e-08 4.97241e-31)
(-5.51381e-08 2.72312e-08 1.37287e-30)
(-2.91569e-08 2.37422e-09 1.30473e-25)
(-6.15752e-08 2.45744e-08 5.55841e-25)
(-2.33779e-08 1.29601e-09 1.40907e-25)
(-4.18696e-08 1.92855e-08 7.07358e-25)
(-3.85745e-08 7.42299e-09 -5.95175e-25)
(-4.3845e-08 1.13285e-08 2.04598e-25)
(-3.19959e-08 8.17627e-09 -1.03614e-26)
(-3.81099e-08 1.85736e-08 0)
(-2.88626e-08 1.98784e-08 4.2416e-25)
(-2.94773e-08 1.52564e-08 -1.86037e-31)
(-5.02534e-08 2.42445e-08 -3.38612e-31)
(-3.80709e-08 1.11258e-08 -3.75679e-25)
(-4.33235e-08 1.67537e-08 0)
(-3.23902e-08 1.44479e-08 -2.98175e-31)
(-3.35105e-08 1.02872e-08 -2.11269e-25)
(-5.31074e-08 2.01911e-08 1.2162e-25)
(-4.80677e-08 1.15184e-08 -3.25712e-31)
(-3.61558e-08 1.16193e-08 2.18521e-25)
(-3.06669e-08 1.19528e-08 -1.57659e-25)
(-4.25263e-08 1.68206e-08 2.60837e-25)
(-3.19238e-08 1.6062e-08 -4.93786e-31)
(-3.17442e-08 1.12349e-08 0)
(-4.61385e-08 1.67291e-08 5.06108e-25)
(-3.77083e-08 5.3648e-09 -2.70717e-31)
(-4.45574e-08 1.22705e-08 -6.70426e-31)
(-3.1883e-08 1.02456e-08 -5.33777e-25)
(-4.11371e-08 1.75555e-08 0)
(-3.00813e-08 1.74935e-08 4.19886e-25)
(-3.08615e-08 1.29341e-08 -4.33635e-25)
(-4.58685e-08 1.85252e-08 0)
(-3.78086e-08 7.25085e-09 3.83057e-25)
(-4.33602e-08 1.38445e-08 2.5984e-25)
(-3.23095e-08 1.38997e-08 5.00993e-31)
(-3.52373e-08 6.17042e-09 1.82751e-25)
(-6.26414e-08 2.46759e-08 4.67393e-25)
(-2.3689e-08 1.40263e-09 1.40954e-25)
(-4.02858e-08 2.12649e-08 0)
(-3.81065e-08 1.03941e-08 3.90588e-25)
(-4.46057e-08 1.76357e-08 4.95243e-25)
(-3.46658e-08 1.47691e-08 4.31286e-25)
(-3.46312e-08 7.34868e-09 2.10401e-25)
(-5.65754e-08 2.74809e-08 0)
(-2.06364e-08 2.35078e-09 1.86502e-25)
(-4.26e-08 2.68572e-08 4.8448e-25)
(-3.8015e-08 1.17593e-08 1.80884e-25)
(-4.34753e-08 1.5479e-08 6.76805e-31)
(-3.04889e-08 1.06874e-08 1.69018e-25)
(-4.08405e-08 1.66327e-08 6.10282e-31)
(-4.13885e-08 1.44524e-08 6.30977e-31)
(-3.85297e-08 1.3985e-08 -2.26233e-25)
(-4.08092e-08 1.60936e-08 1.96827e-25)
(-4.22627e-08 1.67256e-08 0)
(-3.04934e-08 1.01928e-10 1.78742e-25)
(-6.42518e-08 1.96827e-08 9.20915e-26)
(-2.83199e-08 -1.49939e-09 1.73096e-25)
(-5.84829e-08 2.95428e-08 -4.7325e-26)
(-2.27113e-08 4.41011e-09 0)
(-4.64502e-08 2.46481e-08 5.44168e-26)
(-7.31154e-08 2.03904e-08 9.56974e-31)
(-4.2316e-08 1.5507e-08 3.89249e-31)
(-5.04513e-08 2.8308e-08 0)
(-2.30038e-08 1.0794e-08 -1.79137e-25)
(-4.42242e-08 2.10609e-08 -1.12541e-25)
(-3.77675e-08 8.71552e-09 5.85417e-25)
(-4.37629e-08 1.53855e-08 -4.89329e-25)
(-3.21501e-08 1.31284e-08 -6.03079e-25)
(-3.58568e-08 6.79367e-09 1.81395e-25)
(-6.39818e-08 2.55191e-08 7.7957e-26)
(-2.29357e-08 2.19376e-09 -1.8665e-25)
(-4.06079e-08 2.3284e-08 -1.02159e-25)
(-3.66579e-08 1.05397e-08 0)
(-4.3983e-08 1.56766e-08 4.68712e-25)
(-2.88834e-08 9.31969e-09 0)
(-3.73188e-08 1.50731e-08 0)
(-3.87915e-08 1.32983e-08 5.9407e-25)
(-3.46523e-08 9.51875e-09 -1.66197e-25)
(-3.53673e-08 2.69943e-08 6.41747e-25)
(3.56864e-08 -3.48568e-08 0)
(-4.29705e-10 -2.1041e-08 0)
(2.85939e-08 -6.23462e-08 -4.76321e-25)
(7.67401e-09 -3.67512e-08 7.19575e-31)
(1.71551e-08 -4.03908e-08 6.55492e-31)
(1.32001e-08 -3.74607e-08 -1.94739e-25)
(1.31069e-08 -3.74759e-08 -1.56059e-33)
(1.31131e-08 -3.74669e-08 4.05839e-25)
(1.31534e-08 -3.74805e-08 4.06532e-25)
(1.31789e-08 -3.74781e-08 0)
(1.32053e-08 -3.74783e-08 -2.12077e-25)
(1.32291e-08 -3.74801e-08 -1.94734e-25)
(1.32524e-08 -3.74796e-08 4.07381e-25)
(1.32754e-08 -3.74795e-08 0)
(1.32978e-08 -3.74795e-08 2.87021e-31)
(1.332e-08 -3.74827e-08 -2.13919e-25)
(1.3341e-08 -3.74824e-08 1.93854e-25)
(1.33631e-08 -3.74821e-08 -1.43521e-31)
(1.33838e-08 -3.74826e-08 -1.93513e-25)
(1.34055e-08 -3.74829e-08 -2.87039e-31)
(1.34264e-08 -3.7483e-08 -4.08799e-25)
(1.34483e-08 -3.74827e-08 -1.92994e-25)
(1.3469e-08 -3.74854e-08 0)
(1.349e-08 -3.74827e-08 -2.16651e-25)
(1.3512e-08 -3.74825e-08 1.92486e-25)
(1.3533e-08 -3.7485e-08 1.92337e-25)
(1.35542e-08 -3.74833e-08 -1.43525e-31)
(1.35765e-08 -3.74836e-08 1.91969e-25)
(1.3598e-08 -3.74857e-08 1.91817e-25)
(1.36196e-08 -3.74836e-08 -4.10357e-25)
(1.36426e-08 -3.74836e-08 -4.30571e-31)
(1.36647e-08 -3.74867e-08 -4.30607e-31)
(1.3687e-08 -3.74866e-08 6.02033e-25)
(1.37096e-08 -3.74844e-08 -6.01998e-25)
(1.37335e-08 -3.74843e-08 1.90718e-25)
(1.37566e-08 -3.74875e-08 -2.87075e-31)
(1.37801e-08 -3.74876e-08 -2.87077e-31)
(1.38041e-08 -3.74876e-08 6.02056e-25)
(1.38283e-08 -3.74852e-08 4.12049e-25)
(1.38539e-08 -3.74855e-08 -2.87067e-31)
(1.38788e-08 -3.7489e-08 -1.43546e-31)
(1.39044e-08 -3.74893e-08 -1.43548e-31)
(1.39303e-08 -3.74897e-08 1.89181e-25)
(1.39567e-08 -3.74877e-08 -1.8895e-25)
(1.39848e-08 -3.74876e-08 -1.43541e-31)
(1.40126e-08 -3.74906e-08 -1.43553e-31)
(1.40407e-08 -3.74913e-08 -1.88311e-25)
(1.40696e-08 -3.74918e-08 0)
(1.40993e-08 -3.74922e-08 0)
(1.41296e-08 -3.74901e-08 1.43551e-31)
(1.41618e-08 -3.74908e-08 -1.87334e-25)
(1.41938e-08 -3.74946e-08 4.15057e-25)
(1.42268e-08 -3.74953e-08 -1.43571e-31)
(1.42608e-08 -3.74959e-08 -1.8658e-25)
(1.42958e-08 -3.74972e-08 0)
(1.43319e-08 -3.7498e-08 -1.86021e-25)
(1.43694e-08 -3.74959e-08 1.85706e-25)
(1.4409e-08 -3.74971e-08 6.02202e-25)
(1.44491e-08 -3.75008e-08 0)
(1.44908e-08 -3.75024e-08 1.43595e-31)
(1.45339e-08 -3.75038e-08 1.43601e-31)
(1.4579e-08 -3.75047e-08 -7.18033e-32)
(1.46259e-08 -3.75037e-08 7.17992e-32)
(1.46761e-08 -3.75053e-08 2.35698e-25)
(1.47274e-08 -3.75097e-08 2.36522e-25)
(1.47812e-08 -3.75119e-08 7.18169e-32)
(1.48377e-08 -3.75141e-08 7.18212e-32)
(1.48972e-08 -3.75165e-08 -2.39248e-25)
(1.49598e-08 -3.75194e-08 1.43661e-31)
(1.5026e-08 -3.75219e-08 2.15506e-31)
(1.50963e-08 -3.75223e-08 7.18369e-32)
(1.51718e-08 -3.75261e-08 0)
(1.52512e-08 -3.75327e-08 -7.18567e-32)
(1.5336e-08 -3.75372e-08 -7.18653e-32)
(1.54268e-08 -3.75424e-08 -4.25343e-25)
(1.55245e-08 -3.75479e-08 -1.76847e-25)
(1.56299e-08 -3.7554e-08 0)
(1.57441e-08 -3.75588e-08 4.28022e-25)
(1.58693e-08 -3.75671e-08 1.43844e-31)
(1.60051e-08 -3.75793e-08 0)
(1.61542e-08 -3.75908e-08 4.31573e-25)
(1.63189e-08 -3.76041e-08 4.33002e-25)
(1.65019e-08 -3.76199e-08 2.6502e-25)
(1.67068e-08 -3.76386e-08 1.68082e-25)
(1.69379e-08 -3.7661e-08 -1.66407e-25)
(1.72008e-08 -3.76862e-08 6.05241e-25)
(1.75039e-08 -3.7721e-08 -1.08325e-31)
(1.7855e-08 -3.77678e-08 -7.23062e-32)
(1.82684e-08 -3.7825e-08 4.50429e-25)
(1.87628e-08 -3.79006e-08 0)
(1.93651e-08 -3.80041e-08 1.49671e-25)
(2.01153e-08 -3.81513e-08 6.12707e-25)
(2.10757e-08 -3.83706e-08 3.67305e-32)
(2.23481e-08 -3.87127e-08 1.31456e-25)
(2.41056e-08 -3.92839e-08 -1.88499e-32)
(2.66401e-08 -4.03241e-08 -1.93642e-32)
(3.029e-08 -4.25417e-08 -7.08487e-25)
(3.51275e-08 -3.89588e-08 -1.01928e-32)
(-2.7025e-08 -1.29474e-07 0)
(-7.31359e-08 -1.84995e-08 0)
(-9.652e-08 4.76403e-08 7.70312e-34)
(-1.60482e-08 1.46831e-08 1.03475e-34)
(-7.67238e-08 4.40165e-08 -6.6788e-34)
(-5.00816e-09 1.44385e-08 -9.78646e-26)
(-4.0004e-08 3.9466e-08 -6.07218e-26)
(-3.91979e-08 1.98203e-08 0)
(-3.8268e-08 1.42585e-08 6.90802e-34)
(-7.49155e-08 3.23787e-08 1.40465e-33)
(-1.70792e-08 6.3562e-09 -1.12315e-33)
(-4.33986e-08 2.71215e-08 -1.54413e-33)
(-4.14335e-08 1.74793e-08 0)
(-3.85872e-08 9.73716e-09 2.04454e-25)
(-7.102e-08 2.54107e-08 -2.77654e-34)
(-2.81989e-08 1.80531e-09 -1.09319e-25)
(-7.05014e-08 3.21655e-08 0)
(-1.92277e-08 7.32743e-09 0)
(-4.19037e-08 2.73078e-08 -1.03777e-33)
(-3.56399e-08 1.07382e-08 -3.59878e-25)
(-4.49912e-08 1.71861e-08 0)
(-4.8594e-08 2.14591e-08 -8.97843e-34)
(-3.37175e-08 1.15837e-08 -5.89907e-34)
(-4.7115e-08 1.89746e-08 -3.07815e-25)
(-4.12633e-08 8.16102e-09 0)
(-4.56986e-08 1.27474e-08 -2.13119e-25)
(-3.12185e-08 7.12191e-09 3.69728e-25)
(-4.25829e-08 1.78421e-08 1.95879e-25)
(-4.71933e-08 2.24274e-08 -5.76596e-25)
(-3.28792e-08 1.30225e-08 0)
(-4.71569e-08 2.13991e-08 0)
(-4.00268e-08 1.03303e-08 -6.03911e-25)
(-4.57315e-08 1.44475e-08 -2.04537e-33)
(-3.4614e-08 1.2941e-08 -2.12899e-25)
(-3.56937e-08 7.7774e-09 1.20029e-33)
(-5.90485e-08 2.50641e-08 0)
(-2.44493e-08 1.47612e-09 -1.53819e-25)
(-4.29024e-08 2.42491e-08 0)
(-4.05277e-08 1.45082e-08 0)
(-3.81202e-08 6.7795e-09 7.60301e-34)
(-6.71006e-08 2.70484e-08 -6.16414e-25)
(-2.465e-08 2.94401e-09 1.43532e-25)
(-4.42647e-08 1.78043e-08 2.19391e-25)
(-3.87636e-08 5.25842e-09 0)
(-4.70893e-08 1.28867e-08 2.54673e-25)
(-3.67384e-08 1.41014e-08 4.67681e-25)
(-3.68033e-08 1.94025e-09 2.00723e-25)
(-6.72929e-08 2.11836e-08 0)
(-3.14645e-08 -4.18587e-10 -1.79035e-25)
(-6.55536e-08 2.9724e-08 0)
(-2.24101e-08 4.10571e-09 -2.39642e-33)
(-4.15819e-08 2.65919e-08 -2.52173e-33)
(-3.52313e-08 1.14408e-08 4.49829e-34)
(-4.00249e-08 2.02314e-08 1.2363e-33)
(-2.92785e-08 2.02513e-08 1.03387e-25)
(-3.0452e-08 1.54227e-08 4.07662e-25)
(-4.87147e-08 2.21976e-08 5.00524e-25)
(-4.19318e-08 1.24843e-08 -2.02092e-25)
(-4.69949e-08 1.63849e-08 0)
(-3.41057e-08 8.43744e-09 0)
(-4.33157e-08 1.71457e-08 0)
(-4.67968e-08 2.26104e-08 -5.71494e-25)
(-3.20293e-08 1.37347e-08 0)
(-4.60242e-08 2.2716e-08 0)
(-3.87507e-08 1.16674e-08 0)
(-4.49702e-08 1.72663e-08 0)
(-3.16824e-08 1.1033e-08 0)
(-4.29773e-08 1.84025e-08 -1.86789e-25)
(-4.64806e-08 2.38423e-08 2.33945e-25)
(-3.2235e-08 1.53324e-08 0)
(-4.84e-08 2.58574e-08 0)
(-3.80561e-08 1.35829e-08 6.66572e-34)
(-3.78711e-08 3.79432e-09 -1.49319e-34)
(-6.9874e-08 2.36441e-08 -1.95502e-33)
(-2.59337e-08 -6.07147e-10 0)
(-5.96409e-08 3.30555e-08 0)
(-1.70343e-08 7.90153e-09 -3.90161e-26)
(-4.04087e-08 3.41516e-08 -8.6186e-26)
(-3.45776e-08 1.18489e-08 -1.50871e-25)
(-4.31081e-08 1.68724e-08 0)
(-4.46673e-08 1.59868e-08 1.95135e-25)
(-4.38835e-08 1.70953e-08 -4.82295e-25)
(-3.84142e-08 1.40818e-08 0)
(-3.3542e-08 1.38756e-08 3.75645e-25)
(-4.46771e-08 1.723e-08 4.98831e-25)
(-3.32983e-08 1.63608e-08 4.5847e-25)
(-3.32406e-08 1.32518e-08 -2.10799e-25)
(-5.55452e-08 2.31573e-08 5.69106e-25)
(-4.97525e-08 1.45993e-08 5.22258e-25)
(-3.70021e-08 1.50382e-08 1.88415e-25)
(-2.92415e-08 1.23263e-08 -1.13711e-33)
(-4.34701e-08 1.81206e-08 -1.75296e-25)
(-4.47865e-08 1.8739e-08 0)
(-3.94285e-08 1.89179e-08 -1.25472e-33)
(-3.62598e-08 2.00892e-08 3.19903e-25)
(-3.55376e-08 2.18346e-08 0)
(-3.3588e-08 2.55913e-08 0)
(-1.5908e-08 3.01205e-08 -3.50828e-25)
(3.00105e-08 2.92944e-08 4.92361e-25)
(1.1551e-06 -7.04924e-07 -1.82907e-23)
(-1.01812e-06 1.02831e-06 3.06458e-24)
(2.18209e-08 3.01486e-08 -1.12019e-24)
(2.59948e-08 -4.50395e-08 4.80763e-25)
(-1.45646e-08 -4.24264e-08 0)
(2.26164e-08 -5.73443e-08 1.38552e-26)
(3.27395e-08 -5.52024e-08 2.82346e-25)
(1.48642e-08 -5.3502e-08 3.16767e-25)
(1.31991e-08 -5.21288e-08 2.11978e-25)
(1.45378e-08 -5.21457e-08 0)
(1.48134e-08 -5.21672e-08 -8.37806e-25)
(1.56112e-08 -5.07829e-08 0)
(1.06389e-08 -4.43208e-08 -2.57417e-25)
(-6.17121e-09 -5.88297e-08 3.90777e-25)
(1.90042e-08 -5.01624e-08 -3.74967e-25)
(3.22014e-08 -5.32559e-08 7.22222e-25)
(-3.85916e-09 -5.88044e-08 6.87622e-25)
(1.95549e-08 -5.05393e-08 -1.51124e-26)
(3.31894e-08 -5.23128e-08 -5.64745e-25)
(1.46597e-08 -4.80882e-08 -1.34515e-25)
(1.61807e-08 -5.14322e-08 -4.28588e-25)
(1.66903e-08 -5.26155e-08 5.73668e-25)
(1.69088e-08 -5.2628e-08 5.67059e-25)
(1.74714e-08 -5.25711e-08 1.21453e-25)
(1.74623e-08 -5.32414e-08 3.20326e-25)
(1.75895e-08 -5.39719e-08 -1.99792e-25)
(1.75419e-08 -5.47548e-08 5.93714e-25)
(1.70816e-08 -5.42076e-08 -1.2114e-31)
(1.67551e-08 -5.43977e-08 -3.10599e-25)
(1.66261e-08 -5.32842e-08 -1.45839e-25)
(1.71663e-08 -5.22516e-08 -5.7948e-25)
(1.74686e-08 -5.26467e-08 -1.02991e-24)
(1.81948e-08 -5.2992e-08 -3.26937e-25)
(1.85282e-08 -5.48046e-08 1.09407e-24)
(1.66696e-08 -5.18051e-08 6.11894e-25)
(1.60554e-08 -5.1078e-08 4.51135e-25)
(1.67304e-08 -5.23123e-08 3.10327e-25)
(1.73718e-08 -5.17214e-08 4.55584e-25)
(1.67628e-08 -4.84403e-08 -4.43815e-25)
(1.55484e-08 -4.38707e-08 8.46988e-32)
(1.38246e-08 -4.00532e-08 7.47611e-32)
(1.323e-08 -3.92737e-08 0)
(1.33603e-08 -3.86597e-08 1.52389e-31)
(1.17993e-08 -3.75424e-08 1.50873e-31)
(1.07166e-08 -4.79124e-08 0)
(2.12778e-08 -5.1176e-08 2.17991e-25)
(8.42009e-09 -3.44296e-08 -3.01273e-31)
(2.33868e-08 -5.86082e-08 0)
(1.91433e-08 -5.52954e-08 3.39598e-25)
(1.76434e-08 -5.34741e-08 -4.69701e-25)
(1.72085e-08 -5.28577e-08 -1.56572e-25)
(1.69348e-08 -5.13759e-08 -1.56915e-25)
(1.68143e-08 -5.06476e-08 -3.02399e-25)
(1.73457e-08 -5.06979e-08 1.06916e-24)
(1.77452e-08 -5.01678e-08 4.62031e-25)
(1.76255e-08 -4.88205e-08 -4.73299e-25)
(1.67895e-08 -4.89838e-08 -2.12958e-25)
(1.778e-08 -5.19154e-08 5.21515e-25)
(1.78729e-08 -5.25489e-08 0)
(1.78597e-08 -5.19745e-08 2.73944e-25)
(1.81038e-08 -5.16421e-08 2.72696e-25)
(1.68724e-08 -4.91401e-08 -7.87563e-25)
(1.64018e-08 -4.76467e-08 -2.23604e-25)
(1.65865e-08 -4.70853e-08 -4.89266e-25)
(1.56075e-08 -4.58323e-08 2.11492e-25)
(1.71399e-08 -4.9492e-08 8.20831e-31)
(1.76469e-08 -5.22677e-08 3.02746e-25)
(1.76999e-08 -5.21853e-08 2.13967e-31)
(1.77433e-08 -5.23489e-08 -2.14637e-31)
(1.79602e-08 -5.25294e-08 2.1585e-31)
(1.82751e-08 -5.14123e-08 2.12017e-31)
(1.38601e-08 -3.68914e-08 -1.3635e-25)
(1.67809e-08 -4.66117e-08 -4.53308e-25)
(1.83383e-08 -5.22185e-08 -3.4522e-25)
(1.72131e-08 -5.30338e-08 3.28226e-25)
(1.68155e-08 -5.31794e-08 -1.39737e-25)
(1.77808e-08 -5.26944e-08 -4.75412e-25)
(1.3204e-08 -3.76569e-08 -3.71304e-25)
(1.61274e-08 -4.66939e-08 -1.96407e-31)
(1.67888e-08 -4.88521e-08 0)
(1.59245e-08 -4.87687e-08 0)
(1.55504e-08 -4.84181e-08 0)
(1.57688e-08 -4.85973e-08 -4.0894e-31)
(1.58669e-08 -4.87029e-08 -3.39411e-25)
(1.61624e-08 -4.8611e-08 -4.64366e-25)
(1.80741e-08 -5.13187e-08 -4.88469e-25)
(1.82824e-08 -5.01855e-08 -2.03418e-31)
(1.84739e-08 -4.99467e-08 -2.01876e-31)
(1.83828e-08 -4.89359e-08 0)
(1.9068e-08 -4.94724e-08 0)
(1.95248e-08 -4.79316e-08 1.71727e-25)
(2.06338e-08 -4.76671e-08 -1.55956e-25)
(2.05534e-08 -4.79722e-08 -4.94866e-25)
(2.11369e-08 -4.84779e-08 -4.23271e-31)
(2.28856e-08 -5.04551e-08 1.94101e-25)
(2.5271e-08 -4.84328e-08 4.8376e-25)
(2.6307e-08 -4.88795e-08 -5.07988e-25)
(2.32133e-08 -4.45518e-08 0)
(2.31666e-08 -3.13221e-08 -5.51478e-25)
(1.11238e-08 -4.4868e-08 3.17655e-25)
(2.76342e-07 3.8404e-07 -7.59081e-31)
(3.84882e-07 2.70772e-07 3.42532e-26)
(2.65032e-07 3.59086e-07 -3.35391e-24)
(3.48203e-07 2.46906e-07 -1.67247e-24)
(4.07726e-07 2.68239e-07 1.6033e-24)
(2.7138e-07 3.83914e-07 1.67907e-24)
(2.60437e-07 4.00049e-07 5.99845e-25)
(3.68271e-07 2.6123e-07 -1.80493e-24)
(2.82675e-07 3.84316e-07 -6.72831e-25)
(4.06518e-07 2.9366e-07 -1.29078e-25)
(3.94416e-07 2.76319e-07 -6.15724e-25)
(2.60312e-07 3.83092e-07 3.59962e-25)
(2.60209e-07 3.58469e-07 1.96697e-24)
(3.91739e-07 3.05737e-07 3.02916e-25)
(3.53444e-07 2.58864e-07 1.40478e-24)
(2.67603e-07 3.83833e-07 2.28312e-24)
(2.69104e-07 3.71817e-07 -4.59201e-30)
(3.60794e-07 2.53603e-07 5.91559e-25)
(3.8892e-07 2.9574e-07 3.42512e-24)
(2.90434e-07 3.84763e-07 -7.9581e-25)
(4.06731e-07 3.03708e-07 -1.63055e-24)
(2.64582e-07 3.83796e-07 1.81481e-24)
(2.56078e-07 3.52519e-07 3.38031e-24)
(4.0213e-07 2.89102e-07 2.48092e-24)
(3.00464e-07 3.85546e-07 -7.09213e-26)
(3.55771e-07 2.53802e-07 1.68535e-24)
(4.3065e-07 3.06994e-07 1.14294e-25)
(2.8057e-07 3.55031e-07 -8.23577e-25)
(2.62091e-07 3.83777e-07 -1.85448e-25)
(3.87713e-07 3.09689e-07 1.97738e-24)
(4.21331e-07 3.16828e-07 -1.43803e-26)
(2.49131e-07 3.55791e-07 1.5898e-24)
(3.25462e-07 2.75752e-07 1.86228e-25)
(2.8003e-07 3.72529e-07 -1.26463e-24)
(3.14075e-07 3.86999e-07 3.22544e-26)
(3.84794e-07 2.94649e-07 -7.04145e-25)
(2.59999e-07 3.83775e-07 8.12777e-25)
(4.35564e-07 3.44542e-07 7.21804e-26)
(3.34125e-07 3.02527e-07 1.45261e-24)
(2.39296e-07 3.9348e-07 -6.66205e-25)
(4.05464e-07 2.86052e-07 1.86831e-24)
(2.93682e-07 3.79524e-07 1.27477e-24)
(3.33335e-07 3.89849e-07 -8.15618e-25)
(3.54277e-07 2.81904e-07 -1.79215e-24)
(2.57725e-07 3.83796e-07 -7.95739e-25)
(4.06436e-07 3.39704e-07 5.41516e-25)
(3.83148e-07 3.16848e-07 0)
(2.17347e-07 3.88816e-07 -2.00513e-24)
(2.78932e-07 3.84155e-07 -1.19837e-24)
(3.65695e-07 2.66692e-07 7.85772e-25)
(4.0155e-07 2.75712e-07 -7.47243e-25)
(2.70168e-07 3.74711e-07 -2.49109e-25)
(4.36342e-07 2.97909e-07 7.45947e-25)
(3.03022e-07 3.81998e-07 6.65031e-25)
(3.44734e-07 2.49536e-07 1.87746e-24)
(2.73472e-07 3.83959e-07 -3.79451e-31)
(2.45202e-07 4.22264e-07 1.36302e-24)
(4.07657e-07 2.91353e-07 3.62144e-25)
(2.66244e-07 3.86124e-07 -5.67571e-25)
(4.41415e-07 3.03483e-07 -2.16788e-25)
(2.69436e-07 3.83874e-07 -1.50408e-24)
(3.61384e-07 3.95739e-07 -4.59388e-25)
(4.21565e-07 3.16658e-07 1.9978e-26)
(4.20937e-07 3.12638e-07 9.67381e-25)
(4.07821e-07 3.24753e-07 -1.07245e-24)
(2.8621e-07 3.84485e-07 1.12504e-25)
(2.5971e-07 3.65777e-07 -2.91622e-25)
(4.1467e-07 2.76879e-07 -7.38333e-26)
(3.65235e-07 2.47586e-07 5.66606e-25)
(3.36665e-07 3.72979e-07 9.6773e-27)
(4.22771e-07 4.1624e-07 -1.12434e-32)
(3.66665e-07 3.75002e-07 -3.1986e-24)
(2.56244e-07 3.84354e-07 -1.79716e-24)
(4.61578e-07 4.4893e-07 -5.00635e-25)
(4.06868e-07 3.59797e-07 -2.09356e-24)
(2.46328e-07 3.95904e-07 1.77734e-24)
(3.7881e-07 2.67233e-07 1.88181e-24)
(2.78833e-07 3.89347e-07 -1.1716e-24)
(4.12996e-07 2.80158e-07 -8.3427e-25)
(2.87064e-07 3.992e-07 -1.30771e-26)
(4.24357e-07 3.24665e-07 -3.11993e-25)
(2.63329e-07 3.83789e-07 -1.81644e-25)
(4.22903e-07 3.18562e-07 -2.03335e-24)
(2.66292e-07 3.83808e-07 3.79508e-31)
(3.69532e-07 2.67803e-07 -5.74928e-25)
(2.565e-07 3.52084e-07 -2.76379e-24)
(3.06422e-07 3.86116e-07 1.20794e-24)
(2.94214e-07 3.85019e-07 0)
(3.44186e-07 2.55553e-07 3.61021e-26)
(4.12181e-07 3.28673e-07 -2.32461e-24)
(4.38474e-07 3.15622e-07 -1.39449e-25)
(2.52166e-07 3.48681e-07 2.43697e-24)
(4.08414e-07 4.39532e-07 0)
(3.81344e-07 2.62948e-07 2.39991e-24)
(1.19233e-07 5.26858e-07 0)
(5.52057e-07 5.04463e-07 2.5305e-24)
(2.86523e-07 4.33453e-07 1.44846e-24)
(4.68365e-07 4.27944e-07 -6.29784e-26)
(5.40591e-07 5.62729e-07 2.24303e-26)
(2.23503e-07 3.01868e-07 -4.56208e-25)
(4.73873e-07 3.74193e-07 7.31121e-26)
(2.59118e-07 3.83777e-07 -7.5898e-31)
(3.4552e-07 2.6228e-07 -2.15904e-24)
(2.85377e-07 3.72354e-07 -4.45734e-24)
(2.5673e-07 3.83816e-07 2.0208e-25)
(4.83176e-07 4.2101e-07 9.378e-25)
(2.6084e-07 3.83779e-07 7.95906e-25)
(3.92166e-07 3.05747e-07 -2.36676e-25)
(3.97406e-07 2.67881e-07 -1.76832e-24)
(2.94145e-07 3.81308e-07 -2.21815e-27)
(3.8511e-07 2.44851e-07 -1.61356e-24)
(3.16816e-07 3.79623e-07 -2.36141e-24)
(2.80343e-07 3.84202e-07 -1.19863e-24)
(3.88237e-07 2.77719e-07 -7.10973e-25)
(4.20295e-07 3.16435e-07 -2.13065e-24)
(2.77604e-07 3.84102e-07 0)
(2.70773e-07 3.74361e-07 -2.62435e-25)
(3.90789e-07 2.59081e-07 4.39339e-25)
(3.69888e-07 2.59113e-07 -1.23013e-25)
(2.6862e-07 3.5778e-07 -1.98403e-24)
(2.75145e-07 3.84018e-07 6.50296e-25)
(4.26395e-07 2.99839e-07 1.44273e-25)
(2.6852e-07 3.83849e-07 1.8271e-24)
(3.16459e-07 2.84414e-07 -2.51406e-25)
(4.08451e-07 2.92058e-07 9.28911e-25)
(2.66996e-07 3.60344e-07 2.6643e-24)
(2.70237e-07 3.82282e-07 -1.76775e-24)
(4.40856e-07 3.07239e-07 -1.27231e-24)
(2.69874e-07 3.72449e-07 -4.94195e-27)
(3.7984e-07 2.57021e-07 5.85945e-25)
(2.65437e-07 3.83804e-07 1.19669e-24)
(3.37816e-07 2.98283e-07 8.88444e-25)
(3.4861e-07 2.82569e-07 -9.84775e-25)
(1.85173e-07 3.60434e-07 -1.39886e-24)
(2.63537e-07 3.92606e-07 4.85148e-25)
(3.70579e-07 2.70763e-07 -7.82199e-25)
(3.84832e-07 2.67067e-07 1.8608e-24)
(2.72393e-07 3.83931e-07 1.83929e-24)
(2.5869e-07 3.59441e-07 1.28116e-27)
(4.006e-07 2.85471e-07 0)
(4.35845e-07 3.26134e-07 -1.06665e-24)
(2.68328e-07 3.93506e-07 -1.37059e-25)
(2.53901e-07 3.56131e-07 1.64235e-24)
(3.45186e-07 3.92077e-07 2.13529e-24)
(2.70392e-07 3.83877e-07 0)
(3.85014e-07 4.02341e-07 6.44096e-25)
(3.20517e-07 3.87854e-07 7.95325e-25)
(2.84365e-07 3.84402e-07 1.08155e-24)
(3.91055e-07 3.25263e-07 -4.03098e-24)
(3.72019e-07 3.40627e-07 0)
(3.72331e-07 2.84081e-07 -5.88434e-25)
(4.65293e-07 3.32232e-07 0)
(3.76346e-07 3.32426e-07 7.84318e-25)
(3.93508e-07 2.776e-07 2.29468e-25)
(2.58072e-07 3.77163e-07 -2.5893e-24)
(3.47398e-07 2.74332e-07 5.64944e-25)
(3.54899e-07 2.65163e-07 -3.83718e-26)
(2.9715e-07 3.85248e-07 3.79694e-31)
(4.14918e-07 2.97622e-07 0)
(4.2091e-07 2.87843e-07 -5.35264e-26)
(2.88226e-07 3.8462e-07 -2.98392e-24)
(2.59451e-07 3.96191e-07 0)
(3.4469e-07 2.46256e-07 -1.33837e-24)
(2.08751e-07 3.87426e-07 -1.97308e-24)
(4.79359e-07 5.63011e-07 1.30835e-24)
(4.15975e-07 3.00936e-07 1.11214e-24)
(-2.74893e-06 7.54298e-09 -2.5311e-24)
(6.86346e-07 9.5023e-07 -1.00105e-24)
(2.76971e-07 3.84069e-07 -1.05787e-24)
(5.22766e-07 4.84187e-07 1.22727e-28)
(5.21602e-07 4.8414e-07 -1.57176e-29)
(5.22128e-07 4.85166e-07 -4.01685e-27)
(5.20989e-07 4.85097e-07 1.88281e-27)
(5.21483e-07 4.86114e-07 -1.67565e-27)
(5.20364e-07 4.86022e-07 3.4975e-34)
(5.20829e-07 4.87033e-07 2.04546e-27)
(5.19731e-07 4.8692e-07 1.77079e-27)
(5.20168e-07 4.87924e-07 -3.80529e-27)
(5.1909e-07 4.87791e-07 -1.72898e-27)
(5.19502e-07 4.88787e-07 -1.69869e-27)
(5.18444e-07 4.88638e-07 1.66682e-27)
(5.18832e-07 4.89623e-07 3.26565e-28)
(5.19893e-07 4.89799e-07 1.57045e-29)
(5.19198e-07 4.90624e-07 2.01464e-27)
(5.18159e-07 4.90434e-07 -1.97905e-27)
(5.18503e-07 4.91422e-07 -2.00596e-27)
(5.17486e-07 4.9122e-07 3.49914e-27)
(5.17808e-07 4.92195e-07 -1.51633e-27)
(5.16813e-07 4.91981e-07 -1.92991e-27)
(5.17115e-07 4.92943e-07 9.03921e-34)
(5.16142e-07 4.92719e-07 -1.46752e-27)
(5.16425e-07 4.93667e-07 0)
(5.15473e-07 4.93434e-07 1.42342e-27)
(5.15739e-07 4.94368e-07 -1.87048e-27)
(5.14808e-07 4.94128e-07 -1.381e-27)
(5.15058e-07 4.95047e-07 3.19071e-27)
(5.14148e-07 4.94801e-07 1.79851e-27)
(5.14383e-07 4.95704e-07 -1.289e-27)
(5.15287e-07 4.95971e-07 -1.31973e-27)
(5.14597e-07 4.96612e-07 -5.36314e-28)
(5.15494e-07 4.96899e-07 0)
(5.1479e-07 4.97523e-07 1.21936e-27)
(5.15678e-07 4.97831e-07 1.8607e-27)
(5.14961e-07 4.98436e-07 -3.05481e-27)
(5.15838e-07 4.98765e-07 -1.18305e-27)
(5.15108e-07 4.99351e-07 -1.82308e-27)
(5.15975e-07 4.99701e-07 1.16913e-27)
(5.15233e-07 5.00266e-07 0)
(5.16086e-07 5.00636e-07 -1.86219e-27)
(5.15333e-07 5.01179e-07 2.95317e-29)
(5.16173e-07 5.0157e-07 8.39448e-28)
(5.15409e-07 5.02091e-07 1.55941e-33)
(5.16234e-07 5.02502e-07 -8.49579e-28)
(5.15461e-07 5.02999e-07 8.17195e-34)
(5.1627e-07 5.0343e-07 -8.32774e-34)
(5.15488e-07 5.03902e-07 -8.53725e-34)
(5.16279e-07 5.04352e-07 -3.29412e-35)
(5.1549e-07 5.048e-07 1.77817e-27)
(5.14724e-07 5.04356e-07 -9.09412e-28)
(5.1472e-07 5.05229e-07 -9.33217e-28)
(5.15468e-07 5.0569e-07 -1.76204e-27)
(5.14692e-07 5.06094e-07 9.33312e-28)
(5.1542e-07 5.06572e-07 2.50206e-27)
(5.14641e-07 5.06951e-07 -1.72612e-27)
(5.13937e-07 5.06483e-07 -8.87957e-34)
(5.13882e-07 5.07314e-07 -1.64209e-27)
(5.14566e-07 5.07797e-07 9.32235e-34)
(5.13805e-07 5.08135e-07 -9.42771e-34)
(5.13144e-07 5.07663e-07 1.62578e-27)
(5.13066e-07 5.08459e-07 9.48269e-28)
(5.13706e-07 5.08944e-07 -2.19245e-27)
(5.12966e-07 5.09243e-07 2.18469e-27)
(5.12347e-07 5.08771e-07 -2.1851e-27)
(5.12248e-07 5.09532e-07 -1.77533e-33)
(5.11649e-07 5.09072e-07 6.07738e-28)
(5.11551e-07 5.09809e-07 0)
(5.12129e-07 5.10279e-07 -1.47115e-27)
(5.11434e-07 5.10533e-07 1.45547e-27)
(5.1199e-07 5.11013e-07 0)
(5.11298e-07 5.11243e-07 -1.39614e-27)
(5.1076e-07 5.10778e-07 -9.12033e-28)
(5.10628e-07 5.11465e-07 9.28433e-28)
(5.11144e-07 5.11939e-07 -1.39707e-27)
(5.10478e-07 5.12138e-07 -1.32127e-27)
(5.09978e-07 5.11679e-07 0)
(5.09833e-07 5.1233e-07 9.42093e-28)
(5.10311e-07 5.12796e-07 3.33206e-28)
(5.09671e-07 5.12966e-07 3.5001e-28)
(5.09209e-07 5.12516e-07 -3.52202e-28)
(5.09053e-07 5.1313e-07 6.48251e-28)
(5.09494e-07 5.13587e-07 1.24381e-27)
(5.08882e-07 5.1373e-07 -2.96119e-28)
(5.08456e-07 5.13289e-07 -8.36531e-34)
(5.08291e-07 5.13868e-07 -1.69119e-33)
(5.07879e-07 5.13443e-07 0)
(5.0772e-07 5.14001e-07 -8.15195e-34)
(5.08111e-07 5.14431e-07 1.10028e-27)
(5.07547e-07 5.14544e-07 -2.63662e-29)
(5.07171e-07 5.14131e-07 -1.32215e-27)
(5.07005e-07 5.14654e-07 -2.58177e-29)
(5.07361e-07 5.15071e-07 8.29267e-34)
(5.06825e-07 5.15162e-07 -1.65715e-28)
(5.07161e-07 5.15582e-07 1.32876e-28)
(5.06633e-07 5.15653e-07 2.54704e-29)
(5.0631e-07 5.15249e-07 1.11178e-27)
(5.06126e-07 5.15721e-07 -1.47443e-28)
(5.06429e-07 5.16128e-07 1.14781e-28)
(5.05929e-07 5.16177e-07 8.86978e-28)
(5.05639e-07 5.15787e-07 1.42317e-28)
(5.0545e-07 5.16225e-07 -8.74607e-28)
(5.05721e-07 5.16617e-07 0)
(5.0525e-07 5.16646e-07 0)
(5.04991e-07 5.1627e-07 8.13445e-28)
(5.04799e-07 5.16673e-07 4.01812e-29)
(5.04551e-07 5.16313e-07 -8.74006e-28)
(5.05038e-07 5.17051e-07 -7.84673e-28)
(5.04595e-07 5.1706e-07 7.44475e-28)
(5.04814e-07 5.1744e-07 -7.5611e-34)
(5.0438e-07 5.17431e-07 0)
(5.04579e-07 5.17812e-07 -7.84057e-28)
(5.04153e-07 5.17785e-07 6.38785e-28)
(5.04333e-07 5.18168e-07 -6.09371e-28)
(5.03915e-07 5.18123e-07 7.54642e-28)
(5.04075e-07 5.18508e-07 -1.36619e-28)
(5.03666e-07 5.18445e-07 1.39963e-28)
(5.03806e-07 5.18832e-07 1.48489e-28)
(5.13916e-07 4.97233e-07 1.80292e-27)
(5.03405e-07 5.18751e-07 2.37958e-29)
(5.03526e-07 5.19139e-07 0)
(5.03134e-07 5.19041e-07 -1.87558e-28)
(5.03024e-07 5.18669e-07 1.79481e-28)
(5.03235e-07 5.19431e-07 5.81311e-28)
(5.03639e-07 5.19545e-07 -8.32182e-28)
(5.03328e-07 5.19838e-07 2.50791e-28)
(5.03743e-07 5.19968e-07 -2.70493e-28)
(5.03414e-07 5.20263e-07 5.86651e-28)
(5.02761e-07 5.1894e-07 -1.91462e-28)
(5.02663e-07 5.18584e-07 -1.8357e-28)
(5.03839e-07 5.20409e-07 0)
(5.02407e-07 5.18838e-07 1.95664e-28)
(5.02321e-07 5.18498e-07 0)
(5.03492e-07 5.20705e-07 -5.68924e-28)
(5.03928e-07 5.20866e-07 -6.24422e-28)
(5.02073e-07 5.18733e-07 -6.50334e-34)
(5.01999e-07 5.18409e-07 5.91742e-34)
(5.03561e-07 5.21164e-07 -3.64872e-28)
(5.04008e-07 5.2134e-07 -3.40778e-28)
(5.01759e-07 5.18626e-07 0)
(5.01696e-07 5.18318e-07 0)
(5.03623e-07 5.21639e-07 5.96388e-28)
(5.01465e-07 5.18517e-07 1.74342e-33)
(5.01414e-07 5.18225e-07 1.76925e-28)
(5.04079e-07 5.21829e-07 -6.06904e-28)
(5.03678e-07 5.22129e-07 -4.72251e-34)
(5.01191e-07 5.18405e-07 1.11624e-33)
(5.01153e-07 5.18129e-07 1.81673e-28)
(5.04143e-07 5.22335e-07 0)
(5.03724e-07 5.22636e-07 4.50886e-28)
(5.00937e-07 5.1829e-07 1.55554e-33)
(5.00912e-07 5.18031e-07 -2.47828e-35)
(5.04199e-07 5.22855e-07 -4.49741e-28)
(5.00704e-07 5.18173e-07 4.69873e-34)
(5.00692e-07 5.17931e-07 -4.5731e-34)
(5.03763e-07 5.23156e-07 4.5929e-28)
(5.04246e-07 5.2339e-07 -5.22947e-34)
(5.00492e-07 5.18052e-07 0)
(5.00493e-07 5.17827e-07 2.23298e-28)
(5.03795e-07 5.23691e-07 5.82788e-28)
(5.00302e-07 5.17929e-07 2.00474e-28)
(5.00316e-07 5.17721e-07 3.69205e-28)
(5.04285e-07 5.23938e-07 1.06271e-33)
(5.03819e-07 5.2424e-07 1.18349e-27)
(5.00134e-07 5.17803e-07 -1.59583e-28)
(5.00161e-07 5.17613e-07 5.28432e-29)
(5.00322e-07 5.17534e-07 -1.92983e-28)
(5.0018e-07 5.17444e-07 0)
(5.00318e-07 5.17367e-07 1.8547e-28)
(5.00189e-07 5.17295e-07 -2.51329e-34)
(5.00305e-07 5.17221e-07 -2.74044e-34)
(5.00189e-07 5.17167e-07 1.12989e-28)
(5.00282e-07 5.17095e-07 1.78758e-28)
(5.00179e-07 5.1706e-07 8.41161e-29)
(5.00248e-07 5.16989e-07 -1.70213e-34)
(5.00158e-07 5.16974e-07 -1.08019e-28)
(5.00204e-07 5.16903e-07 -1.05685e-34)
(5.00126e-07 5.16908e-07 1.85966e-34)
(5.00149e-07 5.16838e-07 6.36673e-29)
(5.00083e-07 5.16863e-07 -3.66118e-29)
(5.00083e-07 5.16793e-07 8.01511e-35)
(5.00028e-07 5.16838e-07 0)
(5.00004e-07 5.16767e-07 1.49918e-28)
(4.9996e-07 5.16834e-07 -2.45963e-28)
(4.99912e-07 5.16762e-07 -8.09596e-36)
(4.99879e-07 5.1685e-07 -1.25094e-34)
(4.99808e-07 5.16776e-07 -5.8224e-35)
(4.99785e-07 5.16886e-07 4.99735e-35)
(4.99689e-07 5.1681e-07 1.62091e-28)
(4.99676e-07 5.16942e-07 -5.2683e-28)
(5.04316e-07 5.245e-07 -6.08456e-28)
(4.99556e-07 5.16863e-07 -4.87697e-28)
(5.03835e-07 5.24801e-07 5.46358e-34)
(5.03345e-07 5.24528e-07 3.77758e-30)
(5.00099e-07 5.17025e-07 1.54736e-28)
(4.99786e-07 5.16998e-07 2.41357e-28)
(4.99687e-07 5.17077e-07 -9.51448e-29)
(5.03347e-07 5.25089e-07 -5.59654e-28)
(5.02863e-07 5.24805e-07 1.1149e-27)
(5.04339e-07 5.25073e-07 -5.50993e-34)
(4.99812e-07 5.17113e-07 3.25606e-34)
(4.99723e-07 5.17215e-07 -3.23028e-28)
(5.02853e-07 5.25366e-07 5.46158e-34)
(5.02375e-07 5.2507e-07 0)
(5.02351e-07 5.25633e-07 0)
(5.01878e-07 5.25326e-07 0)
(4.99864e-07 5.17231e-07 -2.08713e-34)
(4.99785e-07 5.17358e-07 -2.79581e-29)
(5.01843e-07 5.2589e-07 0)
(5.01374e-07 5.25572e-07 -1.71012e-28)
(4.99943e-07 5.17352e-07 -2.56174e-34)
(4.99874e-07 5.17504e-07 -6.5225e-34)
(5.01328e-07 5.26139e-07 -1.32962e-35)
(5.00861e-07 5.2581e-07 1.11885e-27)
(5.00804e-07 5.26381e-07 4.7114e-28)
(5.00339e-07 5.26041e-07 2.30682e-28)
(5.00049e-07 5.17477e-07 -2.38099e-28)
(4.99991e-07 5.17655e-07 6.97617e-34)
(5.01279e-07 5.26716e-07 1.10847e-33)