/*--------------------------------*- C++ -*----------------------------------*\
  =========                 |
  \\      /  F ield         | OpenFOAM: The Open Source CFD Toolbox
   \\    /   O peration     | Website:  https://openfoam.org
    \\  /    A nd           | Version:  6
     \\/     M anipulation  |
\*---------------------------------------------------------------------------*/
FoamFile
{
    version     2.0;
    format      ascii;
    class       volScalarField;
    location    "12960000";
    object      Cw;
}
// * * * * * * * * * * * * * * * * * * * * * * * * * * * * * * * * * * * * * //

dimensions      [1 -3 0 0 0 0 0];

internalField   nonuniform List<scalar> 
11830
(
5.78998e-94
5.33775e-40
9.19938e-108
2.49518e-10
1.17525e-92
3.00719e-92
1.38314e-92
0
0
1.25513e-84
6.37007e-83
3.17964e-82
2.65053e-81
0
6.84463e-79
0
1.80164e-73
2.52543e-72
3.91661e-72
3.02215e-72
0
0
3.00459e-69
7.32693e-67
1.01072e-65
1.48904e-64
1.73659e-63
5.25564e-63
0
0
5.26263e-63
0
6.26005e-58
8.18931e-57
1.38591e-56
8.06451e-57
1.27927e-57
1.22001e-57
0
0
0
0
0
5.25995e-49
2.91045e-48
5.90524e-48
2.35194e-48
2.4869e-49
1.07678e-50
0
6.93202e-46
1.32015e-45
5.58188e-46
5.36121e-48
0
1.96722e-43
1.59647e-42
1.36359e-42
3.4338e-43
0
0
5.18912e-42
1.29385e-41
8.6328e-42
2.69649e-42
2.43646e-43
0
3.76597e-42
1.09746e-41
1.07497e-41
3.32362e-42
3.85123e-43
0
0
3.90216e-42
1.28546e-41
2.75785e-41
1.99236e-41
1.51114e-41
4.36362e-42
9.43406e-43
2.18143e-42
4.35549e-42
0
0
0
0
6.38273e-36
2.51019e-35
3.01215e-35
3.63583e-35
2.88237e-35
1.8154e-35
9.56359e-36
4.62962e-36
3.23966e-36
1.09665e-36
6.02818e-37
1.74913e-37
6.72518e-38
2.09428e-38
6.20482e-39
2.43768e-39
1.90447e-39
3.15264e-39
9.44114e-39
2.1773e-38
4.90094e-38
1.03025e-37
2.03826e-37
3.77087e-37
6.47001e-37
1.03644e-36
1.53319e-36
2.08705e-36
2.57988e-36
2.76447e-36
2.41982e-36
1.57583e-36
5.95495e-37
0
0
0
0
0
0
0
8.81946e-48
5.89912e-47
1.41637e-46
2.49927e-46
2.7641e-46
2.15656e-46
1.04458e-46
1.30607e-47
0
2.57455e-52
0
0
0
0
8.31532e-57
3.0197e-56
6.63145e-56
8.05653e-56
5.78707e-56
2.07947e-56
1.12043e-58
0
0
0
0
3.2588e-63
1.45797e-62
3.11054e-62
3.20844e-62
1.46801e-62
1.39189e-63
0
0
0
0
0
9.37983e-77
1.06528e-72
3.47506e-72
5.83364e-72
4.66167e-72
1.50868e-72
1.4577e-74
0
0
0
0
0
2.5972e-83
1.03473e-82
1.73339e-82
1.71672e-82
7.29582e-83
7.52469e-84
0
5.06806e-88
0
0
0
0
2.6405e-93
1.14149e-92
1.14253e-92
4.19627e-93
4.25339e-94
0
0
0
0
0
0
1.28424e-105
7.06236e-105
3.83225e-105
5.60567e-106
9.34919e-107
1.77616e-106
3.60263e-106
1.05244e-104
2.30218e-102
0
0
0
0
0
2.87553e-94
3.26464e-93
2.66217e-92
0
5.98131e-90
0
6.35494e-86
1.38655e-83
3.95252e-82
0
0
0
5.18273e-76
1.03199e-74
2.25296e-73
2.77246e-72
2.20341e-71
1.15088e-70
0
0
5.14402e-68
0
3.23759e-65
6.74581e-63
1.53449e-61
8.56413e-61
4.86702e-60
4.206e-60
6.5985e-60
0
9.66071e-57
1.21141e-55
1.03543e-54
2.98854e-52
0
1.2661e-49
1.02441e-48
3.82544e-48
9.70415e-48
9.18163e-47
3.28734e-45
4.64033e-44
5.41607e-43
0
6.41753e-40
3.80897e-37
3.51609e-37
1.26804e-34
3.04262e-34
1.10344e-33
2.63514e-33
1.32389e-32
1.87778e-31
4.06534e-30
0
1.65284e-26
2.81755e-25
2.28984e-24
3.17146e-24
1.06617e-26
0
1.43063e-22
1.37527e-20
1.1491e-19
8.19304e-19
7.51639e-19
3.57268e-18
0
0
0
3.76219e-13
3.16837e-11
3.23878e-11
4.73033e-10
2.93701e-10
6.22168e-10
9.70794e-10
2.50841e-09
3.07933e-09
3.2751e-09
3.43336e-09
3.45104e-09
3.25185e-09
2.91375e-09
2.47885e-09
1.77475e-09
1.07788e-09
7.08158e-10
1.95653e-10
2.47801e-10
1.13639e-09
4.0245e-10
1.38523e-09
8.38966e-10
1.86478e-09
1.18398e-09
9.84123e-10
6.46418e-10
3.19477e-10
1.39999e-10
5.58499e-11
1.7957e-11
2.92714e-12
0
0
0
0
2.20995e-20
7.782e-21
2.27128e-21
6.80015e-23
2.48023e-24
7.9941e-25
2.40876e-25
1.28417e-25
7.07412e-26
3.16002e-26
1.03554e-26
1.15148e-27
0
1.71259e-29
7.74532e-29
6.79043e-29
4.0378e-29
1.53742e-29
4.07168e-30
1.00801e-31
0
0
2.21375e-35
2.33336e-34
1.28591e-34
4.84076e-35
1.24887e-35
3.23205e-37
0
0
3.2537e-41
3.41042e-40
1.86707e-40
6.67137e-41
1.44394e-41
2.14548e-44
0
0
4.1151e-47
3.35146e-46
1.51519e-46
4.58708e-47
4.83709e-48
0
0
7.53688e-53
1.23434e-53
8.92104e-56
8.55371e-57
7.89416e-59
4.32512e-60
5.02044e-63
3.11987e-65
1.45564e-65
0
1.22224e-66
7.13546e-67
2.74657e-67
5.2788e-68
6.83689e-70
0
0
4.15009e-74
0
1.51131e-77
5.41269e-79
1.81805e-81
0
0
4.77494e-82
1.31033e-82
2.72338e-83
4.3392e-84
3.98626e-85
7.97313e-87
0
0
0
0
2.40147e-93
3.16321e-93
2.06242e-40
0
3.23141e-62
1.16599e-44
4.38234e-47
5.50864e-55
0
0
9.95327e-41
3.28869e-46
0
1.22021e-33
0
7.48485e-62
0
0
0
1.10584e-23
5.37086e-42
5.22044e-57
5.84955e-71
5.40505e-46
1.28475e-25
0
1.52328e-40
3.26828e-82
0
1.70396e-19
0
0
3.19911e-20
2.43136e-65
0
0
0
0
2.70193e-35
0
0
0
6.0692e-10
0
4.32879e-80
4.80892e-34
3.28026e-93
3.03037e-10
1.3943e-35
0
4.01401e-42
4.19521e-42
0
1.25097e-61
0
7.27571e-35
3.64291e-83
1.42774e-34
0
1.46751e-09
2.48965e-93
1.1862e-28
2.391e-71
6.97778e-41
0
2.16888e-29
0
2.17714e-48
0
0
0
6.81426e-36
1.02945e-09
9.74964e-87
0
1.19069e-36
5.42466e-10
1.98614e-82
0
2.71807e-45
0
1.7412e-74
3.94835e-26
7.25815e-56
3.49283e-41
0
3.45128e-82
2.16831e-40
4.27891e-67
0
1.81153e-20
5.55738e-64
3.31414e-25
2.71401e-63
0
3.48045e-10
2.9376e-37
0
0
1.04524e-37
2.29132e-10
1.89293e-88
2.62931e-35
0
2.24524e-40
1.03224e-41
0
0
2.42087e-47
0
7.973e-45
0
2.35351e-61
1.71255e-41
8.38112e-35
0
0
3.42006e-92
2.04604e-10
2.86786e-71
9.92296e-11
3.10104e-73
0
1.25308e-45
1.3651e-09
1.35674e-09
0
5.19381e-10
4.73686e-82
3.84402e-35
0
2.25541e-83
4.78626e-36
3.28963e-34
0
3.43932e-76
2.03409e-52
2.15398e-42
6.42194e-47
1.09525e-34
3.15332e-32
0
1.26398e-40
0
0
1.50455e-42
0
4.2078e-68
1.19493e-47
3.7603e-48
1.67354e-34
0
0
5.20611e-29
0
0
0
4.8759e-55
1.06211e-55
0
0
6.24644e-36
0
1.51011e-60
2.43552e-56
9.59534e-56
2.83055e-105
7.22239e-11
2.58208e-38
8.53246e-93
2.85122e-40
7.84897e-41
0
0
0
9.09672e-37
5.31064e-34
1.97826e-33
5.03885e-33
1.24606e-32
1.55025e-32
2.9901e-32
9.70546e-33
4.76161e-33
4.89296e-32
0
0
0
0
1.1816e-27
2.77622e-26
7.51862e-26
1.83655e-25
3.39981e-25
4.1444e-25
5.04476e-25
0
0
0
1.93173e-24
0
3.17136e-23
3.52361e-25
1.691e-23
2.31038e-24
0
6.42428e-25
0
1.19458e-25
0
0
0
0
4.16978e-22
0
1.81905e-20
0
6.82272e-20
0
1.6611e-19
7.2359e-19
1.27066e-18
3.42161e-19
2.15144e-18
6.55045e-19
3.54495e-18
6.86262e-18
1.0014e-17
5.61394e-18
1.39499e-17
1.69102e-17
2.12625e-17
1.84873e-17
2.52559e-17
2.21755e-17
6.08747e-17
1.51265e-17
1.62959e-16
2.61491e-16
2.75764e-16
7.86467e-16
0
0
0
9.37101e-19
2.73322e-16
1.52317e-13
6.24025e-14
1.36085e-14
2.46112e-11
6.57207e-11
0
6.21563e-11
0
0
0
0.000240806
0.000481061
0
0.000750946
0.00538925
0.00607103
0.00101091
0.00644279
0.00122864
0.00649275
0.022279
0.0201564
0.00620753
0.0174541
0.0448162
0.0360157
0.0144761
0.0277995
0.0583192
0.042304
0.0767125
0.0206152
0.0295193
0.0146918
0.0198252
0.0100669
0.0128146
0.00663387
0.00798352
0.00420758
0.00479056
0.00256852
1.20849e-22
0.0027747
0.00151088
0.00155295
0.00258437
0.000856737
0.000738163
0.000426473
0.000320634
0.00018963
0.00138913
0.00206042
0.000122537
0.00104767
0.00136114
7.45963e-05
4.05809e-05
0.000651767
0.000733703
2.5632e-05
1.13607e-05
0.000329737
0.000325288
7.54098e-06
0.000136911
0.00011339
2.57053e-06
1.8351e-06
4.38458e-05
2.8524e-05
4.27937e-07
3.45189e-07
9.80485e-06
4.21859e-06
3.91102e-08
1.16968e-06
1.49834e-07
4.20275e-08
7.02113e-13
1.92313e-10
0
1.64755e-09
0
0
0
0
0
0
0
0
0
0
0
0
0
0
0
6.53902e-23
0
4.17143e-22
4.72946e-22
8.99053e-22
1.37986e-21
1.23885e-21
2.1457e-21
1.33235e-21
2.46935e-21
1.0581e-21
2.20957e-21
5.93432e-22
1.39715e-21
1.9977e-22
0
5.7781e-22
0
0
1.03249e-22
6.00516e-23
0
0
9.00517e-11
0
0
0
0
1.8136e-10
0
2.1996e-10
0
3.75768e-30
3.64733e-12
2.07296e-10
0
4.83167e-33
1.03301e-11
1.62206e-10
1.34569e-11
1.12855e-10
3.56917e-34
1.52322e-36
0
1.28946e-11
7.17772e-11
9.96018e-12
4.23423e-11
0
2.13203e-36
9.57874e-38
2.34081e-35
3.10925e-35
4.4017e-35
6.76596e-12
2.34097e-11
1.4639e-35
7.6416e-35
4.17776e-12
1.22193e-11
5.15546e-35
2.38442e-12
6.05449e-12
1.00399e-34
1.27277e-12
2.85962e-12
4.26868e-35
3.65011e-13
6.40614e-13
1.29177e-12
0
9.59808e-35
3.0585e-13
5.59649e-13
2.00073e-12
8.04299e-13
2.51387e-12
9.50918e-13
2.65625e-12
9.57092e-13
2.44813e-12
8.42831e-13
1.93558e-12
3.36058e-13
6.325e-13
1.30072e-12
0
4.44524e-17
0
0
3.2031e-19
2.55916e-19
7.1981e-19
3.66836e-19
5.56604e-19
2.47007e-19
3.07553e-19
8.47413e-20
9.02704e-20
7.99153e-21
3.53973e-21
0
0
4.82717e-22
7.05171e-22
3.46064e-22
2.28324e-22
2.39836e-22
2.18181e-23
8.81171e-24
0
1.56486e-24
4.73978e-25
4.45632e-25
4.04305e-13
7.43925e-13
2.1532e-35
3.29266e-25
2.09288e-25
3.39305e-25
1.46318e-25
1.65314e-25
5.68726e-35
2.20342e-13
3.61297e-13
3.04258e-21
5.21183e-36
1.02889e-36
3.47853e-26
3.59952e-26
0
0
1.02027e-13
1.47728e-13
1.00173e-27
1.51328e-28
1.88854e-35
0
0
0
0
0
3.97326e-14
4.99286e-14
2.80499e-14
0
0
7.42607e-30
1.32178e-29
9.33458e-31
1.23471e-29
1.61663e-29
2.20658e-29
1.93649e-29
0
0
4.77972e-30
3.96828e-30
2.05585e-29
2.85783e-30
2.27406e-32
0
1.67714e-30
0
0
0
0
0
3.04996e-35
4.77547e-35
5.12626e-37
6.96558e-35
6.01847e-35
1.04071e-14
7.51163e-15
1.36105e-35
6.49341e-35
2.79857e-47
4.6572e-47
2.42263e-35
2.65605e-15
1.96046e-15
8.71653e-47
6.06593e-47
3.93859e-48
1.91723e-35
2.3057e-36
5.45784e-47
2.81261e-47
6.60444e-16
4.98872e-16
1.20645e-47
3.89793e-48
1.23037e-47
9.42439e-49
4.55796e-48
0
8.73621e-37
0
2.43832e-25
1.60105e-16
1.23825e-16
1.06927e-49
1.40468e-48
1.48768e-21
6.20565e-21
3.50671e-21
1.19562e-20
7.64299e-21
2.16329e-20
1.55285e-20
3.62311e-20
2.98737e-20
5.80504e-20
5.47103e-20
9.07906e-20
9.4276e-20
1.37578e-19
1.53419e-19
1.96228e-19
2.41857e-19
2.62854e-19
3.71195e-19
3.22098e-19
5.45464e-19
3.63279e-19
7.47398e-19
3.43764e-19
9.48918e-19
2.20634e-19
1.08196e-18
1.0957e-19
1.05828e-18
0
1.82977e-18
8.15147e-19
0
4.21729e-19
5.33839e-19
0
0
8.02727e-20
4.57159e-17
0
5.31212e-16
0
0
1.2392e-12
0
9.58614e-10
0
0
0
0
0
0
0.000303949
0.00495991
0.00928957
0.0014644
0.0144989
3.29516e-19
0.00316051
0.0200324
0.0583599
0.0679638
0.0252231
0.0748832
0.167235
0.170524
0.334439
0.317265
0.167339
0.288113
0.489065
0.419742
0.251442
0.347755
0.211416
0.278564
0.171571
0.216082
0.646898
0.134579
0.162447
0.10217
0.118499
0.175512
0.124458
0.0840549
0.0858412
0.117812
0.0580923
0.0575512
4.62016e-19
0.039194
0.0374602
0
0
0
3.70115e-43
0.0257482
0
3.46954e-49
3.78596e-17
4.15485e-17
2.99921e-17
0
0.023715
0.016467
4.88939e-43
8.65252e-43
0
6.86898e-32
0.0779115
9.30719e-18
8.37273e-18
0
5.42413e-50
1.90286e-13
5.44815e-14
1.17943e-42
6.93676e-43
0.0146024
0.0102332
0.0106235
6.9374e-22
3.83996e-10
1.75864e-18
1.17201e-18
0
7.55106e-52
0.00665836
2.1377e-13
5.07975e-14
8.18533e-20
0.00619225
6.83694e-43
1.50674e-43
0.00406735
0.00647693
2.23629e-19
8.21673e-20
0
0
0
2.06271e-13
3.83398e-14
1.39144e-13
0.01925
1.09462e-37
6.78016e-20
1.73653e-20
2.41463e-19
0.00364884
0.00241735
9.12511e-44
4.67542e-46
8.61506e-45
0
1.63771e-13
2.11285e-14
0
1.26243e-20
0
4.11087e-20
0
0
3.91371e-19
5.52032e-05
0
0
0.00209547
0.00140022
0
9.82296e-14
6.27745e-15
0
0
0
0
0
0
3.54351e-14
0
0.00117345
0.000790658
0.000872287
0.000496584
0
0
0
0
1.35532e-15
0
1.84504e-13
3.37696e-06
2.34697e-24
0
0.000641137
0.000875191
0
0
0.000509098
0
2.58669e-63
0
0
2.48863e-32
0
0
0.000280044
1.77431e-19
1.55069e-05
0.000291792
1.06681e-49
2.09245e-50
3.41604e-49
1.03005e-49
5.47962e-49
2.0695e-49
5.10249e-49
2.21796e-49
2.88864e-49
1.52331e-49
1.68986e-50
4.30399e-50
0
0
0
0
0
0
0
0
0
0
1.24044e-41
2.12712e-42
3.71692e-41
8.78613e-42
5.71205e-41
1.59204e-41
5.51935e-41
1.75998e-41
3.44821e-41
1.22827e-41
5.24773e-42
4.13757e-42
0
0
1.48119e-42
1.32962e-42
1.27997e-41
4.00468e-43
4.0661e-43
9.07517e-41
1.02647e-43
1.17471e-43
2.55008e-43
8.28983e-44
9.80024e-44
3.63508e-44
4.0577e-46
4.22503e-45
0
8.54249e-17
2.11328e-17
5.32815e-17
1.34406e-17
3.03131e-17
7.79084e-18
1.58272e-17
4.14329e-18
7.61652e-18
2.03114e-18
3.38796e-18
9.2084e-19
1.3954e-18
3.86886e-19
5.3253e-19
1.50795e-19
1.88374e-19
5.45483e-20
1.04574e-19
6.18237e-20
1.82976e-20
1.90678e-20
5.73529e-21
5.50009e-21
1.73827e-20
1.69157e-21
1.68559e-21
4.51507e-21
1.34053e-20
5.06186e-22
4.8384e-22
3.06792e-21
8.42459e-21
1.64043e-21
4.05415e-21
1.47719e-22
1.35439e-22
4.21394e-23
3.68993e-23
6.25947e-22
1.31004e-21
1.17425e-23
9.79823e-24
1.32259e-22
1.88482e-22
0.000462855
0.000575176
0
1.41242e-53
0
0
4.04756e-56
3.02287e-24
0
0.000282623
2.56945e-55
7.5914e-23
3.19099e-24
2.53787e-24
7.12943e-24
1.76748e-24
4.55848e-24
6.41573e-25
0
0
0
4.82536e-64
7.38871e-33
0
0
1.27133e-44
2.45642e-45
1.08516e-24
2.57372e-24
0
3.49874e-24
0.000162057
0
0
1.72002e-56
0
0
0
3.7376e-24
0
0
0.000293957
0.000326502
0.000149279
1.05419e-55
0
3.33452e-29
5.38779e-64
0
1.22915e-35
5.27905e-38
0
3.87082e-36
2.47344e-37
3.10337e-35
8.59522e-35
9.80269e-35
3.30088e-34
1.94444e-34
1.23217e-45
5.89635e-25
1.28564e-24
9.0256e-25
0
0
0
5.74926e-12
4.24588e-57
0
0.000160282
0.000157402
9.55126e-32
4.89025e-33
2.41499e-29
0
1.51001e-33
2.38938e-31
3.44934e-32
1.16742e-30
1.93878e-30
4.3169e-30
2.28592e-30
6.72884e-30
1.91081e-29
1.90072e-29
6.50638e-29
5.15782e-29
9.26697e-30
1.90303e-29
1.25904e-28
3.14871e-29
2.57104e-28
4.15549e-29
4.34297e-28
4.65034e-29
6.2593e-28
6.21379e-29
3.66824e-30
1.6077e-29
1.45743e-28
3.8084e-29
1.27075e-30
0
3.81203e-29
0
7.16858e-31
4.10861e-30
2.88888e-30
7.38202e-30
2.32373e-30
1.96121e-30
3.33647e-30
3.98285e-31
4.69858e-31
5.0256e-30
5.30434e-31
0
0
7.09715e-30
2.12714e-30
0
0
2.98725e-31
8.59759e-05
0
3.37658e-34
9.54097e-34
0
0
0
1.63016e-30
7.45541e-05
1.32866e-36
3.60922e-64
8.33667e-65
2.83883e-25
5.67868e-25
0
8.36154e-34
1.94897e-33
2.44492e-33
4.1592e-33
5.93612e-33
8.13376e-33
1.9541e-33
2.6723e-33
1.43536e-32
1.35094e-34
5.75539e-35
0
0
0
5.84191e-43
0
4.91377e-46
0
1.92321e-34
1.23957e-34
6.24842e-41
2.91569e-34
1.49594e-34
9.45376e-21
7.48455e-05
6.86245e-05
7.68048e-05
1.09167e-56
4.07429e-57
0
2.68881e-29
0
0
3.27173e-34
0
0
4.32431e-05
5.65771e-34
3.41606e-34
2.16236e-63
4.66136e-63
7.66494e-63
4.57064e-63
9.02068e-63
2.47533e-63
6.29875e-63
5.9529e-64
2.29004e-63
0
2.06493e-64
0
0
0
0
0
0
6.31022e-71
0
0
0
4.10173e-75
0
0
0
6.67145e-64
0
7.77964e-63
4.83362e-05
1.70743e-46
1.20531e-47
1.20967e-25
2.21121e-25
6.1437e-26
1.96266e-64
7.48016e-65
4.90289e-18
3.51912e-05
5.85717e-05
9.8187e-34
7.01018e-34
1.20974e-34
3.10604e-34
1.3715e-35
6.61918e-35
0
0
0
0
0
0
0
0
0
0
0
0
0
0
0
0
0
8.81088e-36
0
1.03955e-34
0
0
3.10483e-34
7.32571e-36
6.63515e-34
8.77351e-35
1.15982e-33
7.45404e-34
2.49415e-34
1.74933e-33
3.85318e-33
4.32727e-33
2.36331e-33
4.534e-33
0
1.2947e-33
5.34435e-33
3.96645e-33
4.51523e-33
2.41573e-33
3.73259e-33
3.74188e-34
2.59219e-33
0
7.1824e-34
1.07215e-30
2.1742e-33
1.31695e-33
0
0
0
2.44655e-05
2.65673e-05
0
0
0
0
0
0
0
0
1.26092e-39
0
4.29153e-38
5.63234e-38
1.1477e-37
4.73907e-38
6.76974e-38
2.02247e-37
8.40026e-38
9.48018e-39
7.35882e-39
9.10044e-38
4.05859e-39
0
0
1.07026e-39
0
0
7.12372e-43
0
2.22403e-42
0
3.25552e-62
0
0
0
0
0
1.28886e-21
0
2.18104e-20
1.81057e-19
2.93233e-19
5.655e-20
4.07999e-19
1.11423e-18
1.22559e-18
5.04204e-19
1.25216e-18
5.61624e-19
1.16341e-18
1.8428e-18
1.44349e-18
9.80284e-19
9.405e-19
6.20219e-19
5.46554e-21
2.03242e-21
0
2.05325e-21
0
4.82215e-21
6.05669e-18
9.5536e-65
4.42785e-42
4.88511e-42
1.95527e-18
2.44562e-64
7.64104e-28
4.69225e-28
3.14678e-05
2.59593e-05
5.7584e-05
1.89536e-05
4.30323e-05
1.18073e-05
2.76997e-05
5.91178e-06
1.45977e-05
2.10983e-06
5.71941e-06
2.23984e-07
1.04625e-06
0
0
0
0
0
0
0
1.26362e-13
0
0
1.05021e-12
7.35222e-15
0
0
0
0
0
0
2.28775e-12
0
0
0
0
0
5.61265e-11
0
0
0
0
0
0
0
0
0
0
1.67391e-05
0
0.000178959
0.000179515
0
0.000655508
0.0053853
0.00984871
1.49862e-64
3.75049e-57
0
4.66339e-28
1.81442e-28
0
0.00169684
0.0170464
3.11881e-27
0.0512552
0.0793268
0.0281028
0.118031
0.250963
0.348151
0.168956
0.466113
0.797389
1.01006
0.602228
1.23587
1.79397
2.08829
1.46009
2.34683
2.9681
3.1739
2.54294
3.26154
3.64747
3.60233
3.24659
3.45439
3.55514
3.29793
3.20321
2.95917
2.86488
2.44587
2.56064
2.00768
2.13481
1.58303
3.06407e-33
1.25021e-63
9.57869e-62
2.58582e-05
4.13853e-05
7.81737e-65
2.71761e-42
2.38867e-42
1.35102e-05
1.43043e-05
4.54575e-26
7.54503e-26
3.73192e-25
1.14637e-25
5.77226e-25
1.57665e-25
8.09727e-25
1.93019e-25
5.53624e-47
1.15463e-46
8.71337e-48
9.85097e-65
5.8562e-65
0
0
0
2.11283
0
0
0
9.1564e-17
9.61537e-27
1.97512e-26
1.0142e-24
2.04621e-25
1.71364
1.19801
4.8777e-06
0
5.08026e-65
4.42421e-43
2.71278e-43
0
0
0
2.31348e-46
2.94758e-46
3.12306e-46
2.72225e-46
1.55353e-46
2.06451e-46
5.28131e-47
8.89948e-47
8.22644e-48
2.14042e-47
0
1.02852e-48
0
1.57502e-62
1.95689e-34
9.24948e-59
1.82695e-56
0
0
4.59076e-53
0
2.29103e-50
5.70508e-51
0
5.02081e-50
0
0
5.37922e-47
0
1.17403e-43
2.96968e-44
5.97714e-43
2.84845e-43
1.18216e-42
7.3946e-43
1.23517e-42
9.93514e-43
1.66665e-43
0
0
0
0
0
8.35973e-37
1.67918e-37
5.22077e-36
1.09787e-35
2.19295e-36
1.9384e-35
3.15536e-35
2.4796e-35
2.57864e-35
0
0
0
0
0
7.1897e-31
2.64579e-30
1.74131e-29
3.24371e-29
6.90039e-29
1.0304e-28
1.16525e-28
1.40743e-28
8.76825e-29
1.44982e-28
1.48279e-28
0
0
0
1.40846e-28
0
0
0
0
7.07972e-27
1.35208e-24
2.48883e-24
1.17079e-25
4.12072e-24
1.49051e-23
1.90791e-23
6.26106e-24
2.28323e-23
3.6295e-23
3.38306e-23
2.48814e-23
2.49158e-23
1.80726e-23
0
0
2.77535e-21
2.22861e-23
8.11684e-21
3.00916e-20
9.98651e-47
7.21459e-19
6.6938e-16
0
1.55541e-13
0
5.43247e-66
1.70238e-05
5.20223e-65
0
7.28916e-06
7.54696e-06
2.19466e-61
1.36887e-28
1.0521e-42
4.3851e-49
2.43686e-08
0
2.36247e-09
0.0221274
2.23785e-18
0
0
0
4.99016e-35
0.00450815
0
0.975199
0.690368
0.86934
0.46675
1.06426e-26
2.15971e-20
1.45653e-20
5.14562e-20
3.36294e-20
0
1.84511e-19
2.09974e-19
4.86764e-20
8.33136e-27
0
1.8385e-42
1.33882e-43
0
0
6.74697e-22
6.21132e-14
3.01487e-14
7.4683e-13
0.315705
0.195675
0.300927
0.114757
0.184702
0.0634722
0.107714
0.0329679
0.0595495
0.0159992
0.0311284
0.00719895
2.47323e-26
5.78067e-26
0
0
7.38127e-18
1.17638e-17
3.60251e-26
1.49648e-26
1.6179e-65
2.17683e-66
1.69698e-47
4.39529e-48
0
0
3.84896e-06
3.89697e-06
0
0
8.99556e-22
1.10625e-24
1.81515e-25
0.0153348
2.14118e-10
0
0
3.99833e-60
6.0635e-43
2.10003
3.70295e-20
0
0
0
0
4.16444e-26
1.06301e-25
1.54781e-26
0.00297417
1.033e-14
5.50466e-15
0
3.52691e-23
0
4.73358e-17
5.7517e-17
1.71588e-17
5.51967e-17
0
0
0
2.11896e-23
0
0
4.03626e-43
0
5.22171e-68
0
3.92279e-66
3.54429e-06
1.99293e-06
1.96802e-06
5.24914e-11
0
2.48806e-44
1.01198e-44
1.82553e-45
0
0
0
0
0
0
0
0
4.37243e-55
4.92973e-55
1.70999e-54
3.68534e-06
8.12297e-13
4.95046e-54
2.86455e-54
0
0
0
4.97146e-48
1.711e-48
5.56987e-55
1.01787e-24
1.24112e-25
2.0284e-26
7.60774e-27
1.01811e-27
0
0.107243
0.0060192
0
0
4.96311e-26
1.3961e-25
9.47341e-17
1.05316e-16
5.50284e-17
8.29765e-17
9.99093e-17
7.03076e-17
0.254934
3.61624e-06
1.7718e-06
3.04717e-06
1.45107e-06
2.3289e-06
8.49558e-07
8.81565e-50
1.19201e-65
9.51148e-54
2.74833e-54
1.05899e-53
1.39859e-54
6.52204e-54
2.13237e-55
8.30862e-57
0
1.65316e-54
0
0.00709121
1.27583e-15
7.9345e-16
1.41248e-62
4.29082e-22
1.27194e-22
6.06421e-35
1.35954e-35
2.13331e-09
4.45508e-06
7.08219e-24
5.27434e-22
1.07903e-06
1.60697e-06
0
7.44359e-68
0
0
8.35291e-49
0
0.00111286
0.000193764
0
0
9.38627e-34
1.04301e-21
3.01001e-53
2.9489e-52
0
4.24473e-26
1.30638e-25
3.43001e-17
5.55028e-17
8.04528e-16
2.73628e-15
4.4377e-16
1.28077e-15
1.08633e-21
1.26659e-21
1.87561e-21
0
0
8.13213e-67
0
0
0
0
1.38773e-48
5.64504e-49
2.06827e-48
0
3.94276e-48
1.83171e-52
4.32163e-58
5.89933e-17
3.51351e-52
1.99909e-52
2.41702e-26
8.47074e-26
0
4.88526e-17
0
0
5.85444e-24
5.57512e-24
8.36792e-17
1.24753e-25
3.77549e-25
2.75903e-25
3.31334e-26
1.30877e-25
3.68801e-27
2.83217e-26
0
0
0
2.19418e-61
3.03338e-47
2.2813e-16
1.63005e-21
7.7581e-06
7.8794e-07
4.07351e-05
3.25375e-05
0
0
2.39154e-05
0
0.00306281
7.63464e-16
2.49998e-17
1.33864e-62
0
0
5.70419e-24
4.44055e-30
3.31599e-21
0
1.06843e-15
0
0
7.78128e-18
0.000512759
5.48696e-17
9.20244e-40
0
2.53093e-39
8.00679e-40
1.40729e-39
9.04003e-65
0
1.9059e-52
1.31114e-52
5.68316e-16
0
0.0372265
0
2.97142e-22
4.14966e-23
6.37513e-27
7.244e-07
9.91599e-07
0
0
5.85314e-40
1.77271e-53
3.29101e-54
0
0
8.25436e-48
0
0
0
0
0
0
8.38562e-25
6.30426e-05
0
4.63522e-61
4.50292e-05
1.05562e-35
2.03601e-36
0
4.84308e-49
3.79549e-49
0
1.24044e-67
0
0
0
0
0
5.76782e-49
1.30185e-47
3.9061e-48
1.0549e-35
1.42525e-22
3.56876e-40
0
0
0
0
3.03336e-23
2.98272e-23
5.90152e-13
7.6554e-22
7.74794e-24
0
0
0
3.0247e-28
0.0489607
0
1.04372e-46
4.84373e-21
9.84987e-21
1.09354e-16
3.22777e-17
1.67845e-22
4.95227e-23
0
2.50922e-41
8.66628e-15
0
2.60568e-05
9.92243e-06
6.59203e-06
3.53864e-06
2.39786e-06
1.17633e-06
1.6197e-06
8.16319e-07
4.79196e-07
5.93419e-07
6.4262e-05
6.69111e-55
7.87437e-37
1.1449e-37
4.91429e-36
3.71196e-37
1.44093e-38
6.36254e-38
1.34879e-39
1.01682e-38
0
0
0
0
0.00016297
0
4.53105e-61
2.40282e-16
0
4.34327e-07
5.36637e-07
3.20391e-07
0
0
8.31805e-72
1.42839e-07
1.35604e-07
0
1.8042e-40
2.1074e-40
0
0
0
0
0
0
0
5.70813e-41
0
0
0
0
0
0
7.46356e-50
2.34264e-50
0
0
2.0567e-48
1.68305e-47
0
0
0
0
0
6.12963e-69
0
6.46238e-40
1.80207e-40
4.58628e-40
0
0
2.86141e-22
0
1.24073e-06
5.90075e-07
7.4975e-26
4.92359e-06
4.58892e-47
4.33051e-47
1.89183e-47
3.65461e-47
0
0
3.80733e-53
0
0
1.73972e-17
3.12278e-18
0
2.94681e-20
7.09663e-20
0
0
0
0
0
2.44209e-07
2.36153e-07
5.76377e-07
2.13257e-07
1.47758e-41
0
1.5388e-22
1.30173e-22
1.55857e-22
0
0
7.28108e-61
5.2067e-63
8.5459e-61
0
0
4.05322e-22
0
2.52673e-47
0.00273261
0.00019316
0
0.000649024
5.54145e-40
4.77619e-41
3.73707e-41
2.56498e-07
5.88907e-25
1.18841e-34
0
0
0
0
2.55159e-30
1.93546e-31
9.99243e-29
1.02208e-28
7.80022e-28
0
6.98326e-29
0
1.43708e-29
0
0
1.06997e-27
0
0
4.87025e-15
0
3.08759e-65
8.43218e-23
2.84364e-23
1.08495e-22
0
0
1.99694e-08
9.12369e-09
0
0
0
0
0
0
0
1.88433e-47
2.73245e-47
1.97259e-39
0
0
5.58644e-32
8.67983e-31
1.54975e-30
8.47966e-31
1.0254e-30
5.28893e-07
1.74584e-07
7.25598e-23
0
2.05545e-31
1.77867e-31
0
0
0
0.000147497
0
0
2.08999e-18
0
0
6.64204e-07
0.000107453
0.000218437
0
0
0.00042633
1.47912e-74
2.96619e-74
2.66372e-08
0
0
1.06093e-40
1.65881e-40
0
0
3.16802e-51
0
0
0
1.3761e-50
0
0
0
3.51502e-68
0
0
2.20802e-43
1.69586e-47
1.737e-47
6.53279e-48
0
4.42243e-07
1.25263e-07
7.70605e-33
1.02633e-15
3.97147e-16
1.46305e-15
0.000344933
2.38887e-23
0
0
0
0
0
0
0
0
0
1.28645e-78
9.17621e-79
2.49079e-78
4.01164e-78
2.46438e-78
4.78579e-78
1.3091e-78
3.24511e-78
2.9121e-79
1.12341e-78
0
8.33406e-80
0
0
0
0
0
1.58186e-85
1.06905e-88
0
0
0
0
0
1.7645e-85
0
1.0612e-78
2.96189e-89
0
5.01263e-85
0
1.12017e-79
0
0
0
0
3.05457e-78
0
4.29014e-28
1.02145e-27
5.48139e-28
7.48292e-28
1.17245e-27
8.15388e-27
5.89767e-27
7.48126e-26
2.81777e-26
1.03746e-25
3.59147e-27
0
0
1.11639e-24
1.74911e-24
1.46935e-23
8.34954e-24
3.2274e-23
1.56955e-23
0
1.13411e-25
7.11244e-23
5.4607e-23
1.07512e-22
1.01927e-23
3.48839e-23
1.27174e-22
4.51589e-23
1.78918e-23
0
7.74453e-24
0
4.56729e-22
0
1.62251e-26
0
1.21346e-26
0
2.67751e-26
7.87712e-67
0
0
0
0
1.07255e-47
0
0
0
0
0
0
0
0
0
0
0
0
0
1.30641e-22
1.39194e-23
6.2717e-23
1.38573e-23
6.29656e-22
4.60805e-22
0.000124508
3.26543e-07
7.51387e-08
0
0
4.90888e-25
0
0
6.83419e-47
1.04047e-19
4.59581e-33
1.72735e-34
3.69223e-79
1.35557e-26
1.09065e-26
0
1.19326e-58
0
5.31408e-66
2.62967e-68
8.07452e-68
9.9175e-56
5.28186e-16
1.48152e-16
1.72432e-15
0
0
0
0
0
0
1.40292e-19
3.05838e-19
0
0
1.82508e-16
0
4.65796e-08
9.45169e-08
4.2645e-23
3.45877e-23
0
0
0
0
1.13896e-65
1.39423e-66
7.24436e-65
2.87318e-65
7.96245e-61
4.20193e-61
4.9936e-61
0
3.18763e-78
0
0
0
0
2.00907e-51
0
1.4281e-19
0.00115037
0.00143464
2.68474e-05
1.26173e-28
0
1.38578e-29
0
1.1887e-30
0
3.12338e-32
1.44484e-64
3.60411e-41
2.13935e-24
1.11438e-38
6.52433e-37
9.02365e-07
2.91415e-46
6.04795e-20
1.20482e-18
0
1.27364e-46
0.000237427
0.000481467
5.25171e-74
0
0
0
0
3.49639e-18
0
1.16389e-61
1.10131e-44
3.63057e-44
4.84723e-63
0
0
0
0
0
1.33356e-52
3.31631e-41
3.77526e-41
2.02404e-40
3.19499e-41
2.32291e-41
3.20888e-52
2.35656e-51
0
2.58541e-59
0
2.98446e-58
9.31821e-58
6.46043e-58
6.60109e-48
0
0
0
1.03745e-38
1.9036e-38
3.37853e-37
1.66609e-37
1.57773e-36
8.25029e-37
7.06252e-38
5.49049e-37
2.58185e-36
1.71805e-36
4.33921e-37
1.0365e-36
1.3354e-36
5.92716e-37
0
0
3.54892e-36
1.90409e-35
0
2.29631e-35
0
1.81181e-35
3.597e-34
4.70504e-37
1.10451e-35
6.275e-37
5.73892e-36
3.70466e-35
1.35328e-35
4.50213e-35
1.06851e-35
4.164e-36
1.86764e-36
0
0
1.53809e-38
0
2.5632e-35
3.06e-35
9.22026e-37
2.02977e-35
1.34721e-36
1.01789e-35
6.46272e-35
2.44835e-35
4.3394e-36
9.20222e-36
0
5.39936e-35
1.96825e-35
3.43723e-36
6.37416e-36
3.01099e-35
6.31485e-36
1.35259e-35
9.37482e-37
1.00037e-36
0
5.44349e-37
5.82989e-37
0
0
0
0
0
0
3.29611e-30
1.69793e-28
0
1.92495e-28
2.39186e-30
1.2801e-28
4.96783e-27
5.61657e-30
6.80264e-29
6.08538e-28
2.45758e-28
3.15293e-29
9.27545e-29
5.58343e-28
1.87083e-28
9.51376e-28
2.93059e-28
6.01398e-29
8.73095e-29
3.7848e-28
1.06118e-28
4.17615e-28
1.11433e-28
4.05853e-28
1.0403e-28
2.90925e-29
2.6e-29
8.5338e-29
2.03853e-29
6.16784e-29
1.41392e-29
3.95853e-29
8.73525e-30
2.26733e-29
3.17327e-30
1.88912e-30
6.97596e-31
4.00567e-31
1.50287e-31
7.43224e-30
8.33078e-32
2.06494e-31
3.17426e-32
5.32801e-32
1.14344e-32
1.86138e-29
1.75726e-28
6.57551e-33
2.40548e-33
1.78571e-32
0
6.61294e-27
5.66806e-26
3.221e-37
3.17657e-66
4.56997e-66
8.20049e-23
6.95903e-22
4.24765e-24
2.13746e-21
1.38503e-21
2.04265e-07
3.46002e-08
1.28056e-06
1.38353e-31
0
0
0
0
0
4.0908e-37
1.8507e-36
0
3.40554e-36
6.92254e-24
1.2469e-23
1.53779e-05
2.67284e-20
1.85111e-18
5.40828e-22
3.74475e-18
5.31516e-18
6.10763e-18
0
2.14435e-31
3.6732e-36
4.68747e-36
5.09387e-36
5.90317e-36
2.11843e-36
2.0792e-36
2.4931e-37
1.65658e-37
0
0
8.42569e-38
0
0
0
1.83929e-38
2.18894e-44
9.22487e-44
3.55475e-44
5.91334e-44
1.95361e-43
8.33585e-44
7.84029e-45
6.06333e-45
0
0
9.91101e-44
2.90823e-45
0
0
8.28178e-43
7.17608e-43
1.5664e-06
5.44031e-07
0
0
2.8063e-67
4.35839e-09
1.0292e-56
2.99582e-54
0
0
5.87954e-16
1.73809e-15
0
0
0
1.50742e-64
8.2806e-65
2.33026e-57
8.03869e-58
0
0
0
0
6.20275e-36
0
4.45602e-35
0
2.79147e-34
7.57896e-37
1.59846e-33
1.96721e-34
8.37384e-33
1.5941e-32
6.82982e-32
7.3918e-32
2.77192e-31
2.78407e-31
1.89406e-31
9.951e-31
1.07823e-30
3.3793e-30
4.01089e-30
8.16132e-31
3.35092e-30
3.63461e-31
1.74409e-30
1.30368e-29
7.76137e-30
3.82314e-31
2.32125e-30
3.23392e-29
1.22143e-29
0
5.65338e-31
0
1.80177e-19
8.02962e-20
1.78945e-67
1.54743e-27
5.20587e-18
6.15364e-18
4.82515e-18
4.22475e-18
5.78729e-18
3.38212e-18
1.68319e-18
1.08066e-18
2.45897e-18
6.11955e-19
1.62199e-18
2.96598e-19
9.60967e-19
1.1788e-19
3.92634e-20
5.04491e-19
3.43974e-20
2.29283e-19
2.53858e-21
8.67728e-20
0
2.58041e-20
0
0
0
0
0
0
0
0
0
0
0
1.92315e-30
0
0
0
0
0
0
0
0
0
0
0
1.54482e-05
0.000879525
0.00112107
0.000662305
0
7.75354e-66
3.65241e-65
1.02556e-64
5.81342e-65
0
2.63698e-65
0
0
0
0
0
4.70961e-62
1.96576e-60
6.51236e-60
4.98221e-59
1.17702e-58
3.14247e-57
0
0
0
0
5.11559e-54
0
2.31385e-51
0
0
0
0
1.15218e-45
3.10946e-47
1.54879e-44
4.6186e-45
3.80038e-44
7.93238e-44
7.96117e-44
4.82982e-44
1.00356e-44
1.73702e-44
0
0
0
0
7.43932e-39
4.21552e-40
8.12978e-38
2.2806e-37
4.17061e-37
1.90915e-37
4.43345e-37
6.99158e-37
2.24476e-38
0
0
0
1.39221e-33
3.06176e-32
4.4258e-31
1.06996e-30
8.18106e-38
2.46779e-30
4.50761e-30
5.24266e-30
7.56759e-30
3.27907e-30
1.07268e-30
1.30739e-31
7.75546e-30
0
0
0
0
1.24535e-26
0
0
8.10198e-26
0
2.72766e-25
1.01686e-43
0
6.76605e-25
0
4.54009e-25
3.24135e-24
5.36285e-24
1.40777e-24
8.34312e-24
1.54392e-23
2.01693e-23
1.23018e-23
2.52122e-23
1.72378e-23
3.03713e-23
2.45692e-23
2.26159e-23
3.46988e-23
1.95442e-23
0
0
1.368e-23
0
0
0
3.88585e-19
1.00943e-18
0
0
0
0
1.38176e-30
1.77402e-31
3.48195e-30
5.2119e-31
5.25175e-30
8.37049e-31
6.01352e-30
9.96573e-31
5.73392e-30
9.79169e-31
4.73163e-30
8.25852e-31
3.47929e-30
6.19326e-31
2.31886e-30
4.19865e-31
1.25983e-29
1.4179e-30
2.60807e-31
1.67856e-68
2.66164e-71
3.77973e-68
1.33761e-33
4.96423e-34
0
1.13429e-66
5.03987e-67
6.39999e-74
0
0
0
0
0
0
1.77501e-61
1.83597e-40
1.63598e-41
0
0
0
0
8.58346e-07
2.34159e-24
0
0
4.32396e-05
1.00696e-07
8.83193e-09
1.90761e-09
0
0
0
0
8.82353e-15
0
0
0
0
0
0
2.38835e-19
0
9.38251e-25
0
6.17613e-62
0
0
0
0
3.3011e-74
2.48467e-74
2.98761e-23
0
6.17298e-21
9.70589e-21
3.5902e-21
3.41088e-33
0
0
0
1.01301e-06
7.62494e-78
1.89725e-63
1.04939e-62
2.0227e-31
1.32944e-53
1.17284e-37
1.54538e-43
0
1.57517e-31
3.9977e-64
0
0
0
0
0
0
1.10589e-72
6.50674e-73
1.41982e-73
1.62697e-73
3.53975e-74
6.91832e-73
5.32496e-75
3.78532e-76
0
0
1.61811e-77
0
0
0
4.52942e-27
2.03481e-27
5.75177e-27
2.72533e-28
2.26733e-44
0
1.1094e-11
0
7.66932e-16
1.2842e-48
4.71141e-35
0
1.86683e-07
1.3929e-07
7.8878e-08
5.97197e-08
9.59972e-08
4.16854e-08
6.16304e-08
2.70522e-08
3.71821e-08
1.64464e-08
2.13822e-08
9.42299e-09
1.20656e-08
2.5812e-08
5.22477e-09
1.4154e-08
2.93524e-08
1.53062e-08
3.0483e-08
3.10938e-19
0
0.0503599
1.9354e-35
1.26856e-42
2.03142e-18
2.52792e-25
0
1.66627e-66
5.10508e-18
4.51711e-29
8.58117e-30
0.322917
0
3.03873e-26
0
0
0
0
1.91513e-30
3.4315e-31
0
2.78665e-29
0
0
0
0
0
0
4.02386e-29
1.37909e-28
1.50392e-28
2.33764e-28
1.97869e-28
2.52673e-28
0
0
1.03757e-34
1.16012e-34
1.16588e-34
9.5712e-35
4.34469e-35
2.59914e-35
3.53521e-36
1.27959e-28
0
6.62892e-31
8.92455e-37
0
0
0
7.19492e-34
0
0
2.0214e-25
4.58829e-25
2.29312e-24
2.23689e-24
3.27679e-24
1.74136e-24
6.85216e-25
0
0
0
0
3.35704e-24
3.19474e-22
5.42498e-21
7.00713e-21
2.3025e-20
1.6801e-20
6.76319e-21
9.33239e-21
7.0517e-21
0
2.04859e-29
1.18048e-34
4.86977e-21
0
4.03559e-43
0
2.645e-42
0
0.000239069
8.54561e-25
0
8.69328e-22
3.06327e-21
0
0
0
0
0
0
1.63445e-10
7.89221e-10
2.17212e-09
8.08348e-09
1.28905e-08
4.25368e-08
5.10423e-08
1.54931e-07
1.53557e-07
5.19901e-08
1.32983e-07
4.63112e-08
4.38078e-07
1.01113e-07
3.60975e-08
6.83499e-08
1.81082e-07
2.49554e-08
0
1.55988e-08
1.07451e-07
2.69446e-07
6.47924e-11
4.53392e-07
1.20441e-06
1.41294e-07
3.35397e-07
3.00083e-11
1.57233e-07
6.715e-08