/*--------------------------------*- C++ -*----------------------------------*\
  =========                 |
  \\      /  F ield         | OpenFOAM: The Open Source CFD Toolbox
   \\    /   O peration     | Website:  https://openfoam.org
    \\  /    A nd           | Version:  6
     \\/     M anipulation  |
\*---------------------------------------------------------------------------*/
FoamFile
{
    version     2.0;
    format      ascii;
    class       volScalarField;
    location    "172800";
    object      Cg0;
}
// * * * * * * * * * * * * * * * * * * * * * * * * * * * * * * * * * * * * * //

dimensions      [1 -3 0 0 0 0 0];

internalField   nonuniform List<scalar> 
184
(
4.34187e-10
4.34187e-10
4.34128e-10
4.33934e-10
4.34085e-10
4.34171e-10
4.34703e-10
4.5692e-10
1.00699e-09
5.20295e-09
4.92791e-09
1.28497e-08
1.70577e-07
2.20051e-06
0.00123537
0.00475844
0.00992863
0.0167442
0.0250532
0.0346107
0.0451321
0.056328
0.0679273
0.0796906
0.0914154
0.102936
0.114123
0.124609
0.113286
0.102312
0.0919804
0.0823076
0.0732991
0.0649505
0.0572489
0.0501747
0.0437031
0.0378052
0.0324494
0.027602
0.0232288
0.0192949
0.0157661
0.0126103
0.0097927
0.00728628
0.00505926
0.00308643
0.00134474
2.14601e-05
2.75833e-06
9.41029e-07
3.63055e-07
1.54105e-07
5.80142e-08
2.37136e-08
9.79269e-09
4.82167e-09
3.76954e-09
4.59289e-09
4.92992e-09
4.76591e-09
5.34151e-09
5.2286e-09
5.22199e-09
5.52693e-09
5.24445e-09
4.72114e-09
4.24377e-09
3.81167e-09
3.42242e-09
3.07296e-09
2.76006e-09
2.48055e-09
2.2314e-09
2.00979e-09
1.81307e-09
1.6388e-09
1.48473e-09
1.34878e-09
1.22907e-09
1.12385e-09
1.03156e-09
9.50759e-10
8.8015e-10
8.18562e-10
7.64943e-10
7.18347e-10
6.77927e-10
6.42927e-10
6.12673e-10
5.86567e-10
5.6408e-10
5.44743e-10
5.28142e-10
5.13915e-10
5.01742e-10
4.91343e-10
4.82475e-10
4.74924e-10
4.68505e-10
4.63056e-10
4.58439e-10
4.54532e-10
4.51231e-10
4.48446e-10
4.461e-10
4.44128e-10
4.42471e-10
4.41081e-10
4.39918e-10
4.38945e-10
4.38133e-10
4.37456e-10
4.36892e-10
4.36423e-10
4.36033e-10
4.3571e-10
4.35443e-10
4.35222e-10
4.35039e-10
4.34888e-10
4.34764e-10
4.34662e-10
4.34577e-10
4.34508e-10
4.34452e-10
4.34405e-10
4.34367e-10
4.34336e-10
4.34311e-10
4.3429e-10
4.34273e-10
4.3426e-10
4.34248e-10
4.34239e-10
4.34232e-10
4.34226e-10
4.34221e-10
4.34217e-10
4.34214e-10
4.34211e-10
4.34209e-10
4.34207e-10
4.34205e-10
4.34204e-10
4.34203e-10
4.34202e-10
4.34201e-10
4.342e-10
4.342e-10
4.34199e-10
4.34199e-10
4.34198e-10
4.34198e-10
4.34198e-10
4.34197e-10
4.34197e-10
4.34196e-10
4.34196e-10
4.34196e-10
4.34195e-10
4.34195e-10
4.34195e-10
4.34194e-10
4.34194e-10
4.34194e-10
4.34193e-10
4.34193e-10
4.34193e-10
4.34192e-10
4.34192e-10
4.34191e-10
4.34191e-10
4.34191e-10
4.3419e-10
4.3419e-10
4.34189e-10
4.34189e-10
4.34189e-10
4.34188e-10
4.34188e-10
4.34187e-10
4.34187e-10
)
;

boundaryField
{
    bc0
    {
        type            zeroGradient;
    }
    bc1
    {
        type            zeroGradient;
    }
    bc2
    {
        type            zeroGradient;
    }
    bc3
    {
        type            zeroGradient;
    }
    top
    {
        type            zeroGradient;
    }
    bottom
    {
        type            zeroGradient;
    }
}


// ************************************************************************* //
