/*--------------------------------*- C++ -*----------------------------------*\
  =========                 |
  \\      /  F ield         | OpenFOAM: The Open Source CFD Toolbox
   \\    /   O peration     | Website:  https://openfoam.org
    \\  /    A nd           | Version:  6
     \\/     M anipulation  |
\*---------------------------------------------------------------------------*/
FoamFile
{
    version     2.0;
    format      ascii;
    class       volScalarField;
    location    "172800";
    object      Cg1;
}
// * * * * * * * * * * * * * * * * * * * * * * * * * * * * * * * * * * * * * //

dimensions      [1 -3 0 0 0 0 0];

internalField   nonuniform List<scalar> 
184
(
0.000874926
0.000874926
0.000874815
0.000874686
0.00087504
0.000875378
0.00088416
0.00107231
0.00266313
0.00841987
0.0198415
0.0357468
0.054031
0.0730509
0.0825063
0.0865368
0.0897946
0.0924357
0.0945623
0.0962589
0.0976004
0.098656
0.0994868
0.100146
0.100677
0.101118
0.1015
0.101751
0.103899
0.105846
0.107687
0.109421
0.111049
0.112573
0.113996
0.115321
0.116552
0.117695
0.118754
0.119736
0.120644
0.121486
0.122267
0.122988
0.123667
0.124276
0.124858
0.125381
0.125864
0.125713
0.117187
0.109044
0.101394
0.0942117
0.0874732
0.0811553
0.0752364
0.069696
0.0645145
0.059673
0.0551535
0.0509386
0.0470114
0.0433559
0.0399565
0.0367983
0.033867
0.0311489
0.0286309
0.0263004
0.0241457
0.0221552
0.0203183
0.0186247
0.0170646
0.015629
0.0143091
0.0130968
0.0119843
0.0109644
0.0100303
0.00917544
0.00839395
0.00768017
0.00702884
0.00643506
0.00589423
0.00540209
0.00495468
0.00454831
0.00417955
0.00384523
0.00354242
0.00326841
0.00302067
0.00279691
0.00259498
0.00241292
0.00224894
0.00210137
0.0019687
0.00184953
0.00174259
0.0016467
0.00156082
0.00148396
0.00141524
0.00135387
0.00129909
0.00125026
0.00120676
0.00116805
0.00113363
0.00110307
0.00107594
0.00105189
0.00103059
0.00101173
0.000995058
0.00098033
0.00096733
0.000955866
0.000945766
0.000936875
0.000929055
0.000922184
0.000916151
0.000910859
0.000906221
0.00090216
0.000898607
0.000895501
0.000892788
0.00089042
0.000888356
0.000886558
0.000884993
0.000883631
0.000882448
0.000881421
0.00088053
0.000879757
0.000879088
0.000878509
0.000878008
0.000877576
0.000877202
0.00087688
0.000876602
0.000876363
0.000876157
0.00087598
0.000875828
0.000875697
0.000875585
0.000875489
0.000875407
0.000875336
0.000875276
0.000875224
0.00087518
0.000875143
0.00087511
0.000875083
0.00087506
0.00087504
0.000875022
0.000875008
0.000874995
0.000874985
0.000874976
0.000874968
0.000874961
0.000874955
0.00087495
0.000874946
0.000874942
0.000874939
0.000874936
0.000874933
0.000874931
0.000874928
0.000874926
0.000874925
)
;

boundaryField
{
    bc0
    {
        type            zeroGradient;
    }
    bc1
    {
        type            zeroGradient;
    }
    bc2
    {
        type            zeroGradient;
    }
    bc3
    {
        type            zeroGradient;
    }
    top
    {
        type            zeroGradient;
    }
    bottom
    {
        type            zeroGradient;
    }
}


// ************************************************************************* //
