/*--------------------------------*- C++ -*----------------------------------*\
  =========                 |
  \\      /  F ield         | OpenFOAM: The Open Source CFD Toolbox
   \\    /   O peration     | Website:  https://openfoam.org
    \\  /    A nd           | Version:  6
     \\/     M anipulation  |
\*---------------------------------------------------------------------------*/
FoamFile
{
    version     2.0;
    format      ascii;
    class       volScalarField;
    location    "172800";
    object      Cw3;
}
// * * * * * * * * * * * * * * * * * * * * * * * * * * * * * * * * * * * * * //

dimensions      [0 -3 0 0 1 0 0];

internalField   nonuniform List<scalar> 
184
(
0.000165027
0.000165027
0.000164997
0.000164876
0.000164925
0.000164955
0.000164966
0.00016497
0.000164974
0.00016498
0.000164987
0.000164994
0.000165001
0.000165013
0.000165008
0.000165026
0.000165016
0.000165033
0.000165022
0.000165038
0.000165024
0.000165041
0.000165025
0.000165039
0.000164825
0.000151156
-0.000567079
-0.0160257
-0.000351028
0.000157559
0.000164957
0.000165026
0.000165033
0.00016502
0.000165032
0.000165021
0.000165032
0.000165021
0.000165032
0.000165022
0.000165032
0.000165022
0.000165032
0.000165023
0.000165031
0.000165023
0.000165031
0.000165023
0.000165031
0.000165023
0.000165031
0.000165024
0.00016503
0.000165024
0.00016503
0.000165024
0.00016503
0.000165024
0.00016503
0.000165024
0.00016503
0.000165024
0.00016503
0.000165025
0.000165029
0.000165025
0.000165029
0.000165025
0.000165029
0.000165025
0.000165029
0.000165025
0.000165029
0.000165025
0.000165029
0.000165025
0.000165029
0.000165025
0.000165029
0.000165025
0.000165029
0.000165025
0.000165029
0.000165025
0.000165029
0.000165025
0.000165029
0.000165026
0.000165029
0.000165026
0.000165027
0.000165028
0.000165026
0.000165028
0.000165026
0.000165028
0.000165026
0.000165028
0.000165026
0.000165028
0.000165026
0.000165028
0.000165026
0.000165027
0.000165027
0.000165027
0.000165027
0.000165027
0.000165027
0.000165027
0.000165026
0.000165026
0.000165036
0.000165018
0.000165028
0.000165028
0.000165027
0.000165027
0.000165027
0.000165027
0.000165027
0.000165027
0.000165027
0.000165027
0.000165027
0.000165027
0.000165027
0.000165027
0.000165027
0.000165027
0.000165027
0.000165026
0.000165033
0.000165021
0.000165028
0.000165027
0.000165027
0.000165027
0.000165027
0.000165027
0.000165027
0.000165027
0.000165027
0.000165027
0.000165027
0.000165027
0.000165027
0.000165027
0.000165027
0.000165027
0.000165027
0.000165027
0.000165026
0.000165031
0.000165023
0.000165028
0.000165027
0.000165027
0.000165027
0.000165027
0.000165027
0.000165027
0.000165027
0.000165027
0.000165027
0.000165027
0.000165027
0.000165027
0.000165027
0.000165027
0.000165027
0.000165027
0.000165026
0.00016503
0.000165024
0.000165028
0.000165027
0.000165027
0.000165027
0.000165027
0.000165027
0.000165027
0.000165027
0.000165027
)
;

boundaryField
{
    bc0
    {
        type            zeroGradient;
    }
    bc1
    {
        type            zeroGradient;
    }
    bc2
    {
        type            zeroGradient;
    }
    bc3
    {
        type            zeroGradient;
    }
    top
    {
        type            zeroGradient;
    }
    bottom
    {
        type            zeroGradient;
    }
}


// ************************************************************************* //
