/*--------------------------------*- C++ -*----------------------------------*\
  =========                 |
  \\      /  F ield         | OpenFOAM: The Open Source CFD Toolbox
   \\    /   O peration     | Website:  https://openfoam.org
    \\  /    A nd           | Version:  6
     \\/     M anipulation  |
\*---------------------------------------------------------------------------*/
FoamFile
{
    version     2.0;
    format      ascii;
    class       volScalarField;
    location    "172800";
    object      Cw5;
}
// * * * * * * * * * * * * * * * * * * * * * * * * * * * * * * * * * * * * * //

dimensions      [0 -3 0 0 1 0 0];

internalField   nonuniform List<scalar> 
184
(
0.000461667
0.000461667
0.000461583
0.000461266
0.000461404
0.000461496
0.000461838
0.000468464
0.000523142
0.000718958
0.00110688
0.00164697
0.00226779
0.00291252
0.00323457
0.00337171
0.00348209
0.00357165
0.00364377
0.0037015
0.00374721
0.00378337
0.00381187
0.00383462
0.00385316
0.00388207
0.00461098
0.0200582
0.00447683
0.0040365
0.00409155
0.00415032
0.00420556
0.00425723
0.00430555
0.0043505
0.00439236
0.00443118
0.00446723
0.00450058
0.00453152
0.00456018
0.00458678
0.0046113
0.0046344
0.00465502
0.0046745
0.00469148
0.00470585
0.00469631
0.00441105
0.00413622
0.00387706
0.00363334
0.00340457
0.00319
0.00298898
0.00280078
0.00262479
0.00246032
0.00230681
0.00216363
0.00203024
0.00190605
0.00179059
0.00168329
0.00158372
0.00149138
0.00140585
0.00132667
0.00125348
0.00118584
0.00112345
0.0010659
0.00101291
0.00096412
0.000919285
0.000878083
0.000840291
0.000805625
0.000773889
0.000744829
0.000718277
0.000694007
0.000671874
0.000651678
0.000633296
0.000616552
0.00060134
0.000587507
0.00057496
0.000563582
0.000553262
0.000543933
0.000535481
0.000527856
0.000520957
0.000514746
0.000509134
0.000504091
0.000499541
0.000495462
0.000491785
0.000488493
0.000485537
0.000482888
0.000480516
0.000478395
0.000476498
0.000474805
0.000473293
0.000471946
0.000470774
0.000469662
0.00046874
0.000467897
0.000467151
0.000466489
0.000465904
0.000465387
0.000464929
0.000464526
0.00046417
0.000463857
0.000463581
0.000463339
0.000463126
0.000462939
0.000462775
0.000462631
0.000462505
0.000462393
0.000462316
0.000462201
0.000462146
0.00046208
0.000462024
0.000461976
0.000461934
0.000461897
0.000461866
0.000461838
0.000461815
0.000461794
0.000461777
0.000461761
0.000461748
0.000461737
0.000461727
0.000461718
0.000461711
0.000461704
0.000461697
0.000461705
0.00046168
0.000461689
0.000461685
0.000461682
0.00046168
0.000461678
0.000461676
0.000461675
0.000461674
0.000461673
0.000461672
0.000461671
0.000461671
0.00046167
0.00046167
0.000461669
0.000461669
0.000461668
0.000461667
0.000461676
0.000461661
0.00046167
0.000461668
0.000461668
0.000461668
0.000461668
0.000461667
0.000461667
0.000461667
0.000461667
)
;

boundaryField
{
    bc0
    {
        type            zeroGradient;
    }
    bc1
    {
        type            zeroGradient;
    }
    bc2
    {
        type            zeroGradient;
    }
    bc3
    {
        type            zeroGradient;
    }
    top
    {
        type            zeroGradient;
    }
    bottom
    {
        type            zeroGradient;
    }
}


// ************************************************************************* //
