/*--------------------------------*- C++ -*----------------------------------*\
  =========                 |
  \\      /  F ield         | OpenFOAM: The Open Source CFD Toolbox
   \\    /   O peration     | Website:  https://openfoam.org
    \\  /    A nd           | Version:  6
     \\/     M anipulation  |
\*---------------------------------------------------------------------------*/
FoamFile
{
    version     2.0;
    format      ascii;
    class       volScalarField;
    location    "172800";
    object      Cw6;
}
// * * * * * * * * * * * * * * * * * * * * * * * * * * * * * * * * * * * * * //

dimensions      [0 -3 0 0 1 0 0];

internalField   nonuniform List<scalar> 
184
(
0.000299133
0.000299133
0.000299078
0.00029886
0.000298948
0.000299003
0.000299024
0.000299031
0.000299037
0.000299048
0.000299061
0.000299073
0.000299086
0.000299107
0.000299098
0.000299131
0.000299113
0.000299144
0.000299123
0.000299153
0.000299128
0.000299158
0.00029913
0.000299158
0.00029913
0.000299157
0.000299161
0.000299884
0.000299149
0.00029915
0.000299122
0.000299133
0.000299145
0.000299121
0.000299143
0.000299121
0.000299142
0.000299122
0.000299142
0.000299124
0.000299142
0.000299124
0.000299141
0.000299125
0.000299141
0.000299126
0.000299141
0.000299126
0.00029914
0.000299127
0.00029914
0.000299127
0.000299139
0.000299127
0.000299139
0.000299128
0.000299139
0.000299128
0.000299138
0.000299128
0.000299138
0.000299128
0.000299138
0.000299129
0.000299138
0.000299129
0.000299137
0.000299129
0.000299137
0.000299129
0.000299137
0.000299129
0.000299137
0.00029913
0.000299137
0.00029913
0.000299137
0.00029913
0.000299136
0.00029913
0.000299136
0.00029913
0.000299136
0.00029913
0.000299136
0.00029913
0.000299136
0.000299131
0.000299136
0.000299131
0.000299133
0.000299136
0.000299131
0.000299136
0.000299131
0.000299136
0.000299131
0.000299135
0.000299131
0.000299135
0.000299131
0.000299135
0.000299131
0.000299133
0.000299133
0.000299133
0.000299133
0.000299133
0.000299133
0.000299133
0.000299132
0.000299131
0.000299149
0.000299117
0.000299135
0.000299134
0.000299134
0.000299133
0.000299133
0.000299133
0.000299133
0.000299133
0.000299133
0.000299133
0.000299133
0.000299133
0.000299133
0.000299133
0.000299133
0.000299133
0.000299132
0.000299131
0.000299144
0.000299122
0.000299135
0.000299134
0.000299133
0.000299133
0.000299133
0.000299133
0.000299133
0.000299133
0.000299133
0.000299133
0.000299133
0.000299133
0.000299133
0.000299133
0.000299133
0.000299133
0.000299133
0.000299133
0.000299132
0.000299141
0.000299126
0.000299135
0.000299134
0.000299133
0.000299133
0.000299133
0.000299133
0.000299133
0.000299133
0.000299133
0.000299133
0.000299133
0.000299133
0.000299133
0.000299133
0.000299133
0.000299133
0.000299133
0.000299132
0.000299138
0.000299128
0.000299134
0.000299133
0.000299133
0.000299133
0.000299133
0.000299133
0.000299133
0.000299133
0.000299133
)
;

boundaryField
{
    bc0
    {
        type            zeroGradient;
    }
    bc1
    {
        type            zeroGradient;
    }
    bc2
    {
        type            zeroGradient;
    }
    bc3
    {
        type            zeroGradient;
    }
    top
    {
        type            zeroGradient;
    }
    bottom
    {
        type            zeroGradient;
    }
}


// ************************************************************************* //
