/*--------------------------------*- C++ -*----------------------------------*\
  =========                 |
  \\      /  F ield         | OpenFOAM: The Open Source CFD Toolbox
   \\    /   O peration     | Website:  https://openfoam.org
    \\  /    A nd           | Version:  6
     \\/     M anipulation  |
\*---------------------------------------------------------------------------*/
FoamFile
{
    version     2.0;
    format      ascii;
    class       volScalarField;
    location    "172800";
    object      hp;
}
// * * * * * * * * * * * * * * * * * * * * * * * * * * * * * * * * * * * * * //

dimensions      [0 1 0 0 0 0 0];

internalField   nonuniform List<scalar> 
184
(
0.02
0.0100021
4.23245e-06
-0.00999315
-0.0199898
-0.0299856
-0.0399801
-0.0499728
-0.0599632
-0.0699505
-0.0799339
-0.0899121
-0.0998841
-0.109848
-0.119803
-0.129746
-0.139676
-0.149591
-0.159489
-0.16937
-0.179232
-0.189075
-0.198899
-0.208708
-0.218503
-0.228288
-0.238069
-0.247851
-0.25764
-0.267442
-0.277264
-0.28711
-0.296983
-0.306885
-0.316816
-0.326775
-0.336758
-0.346761
-0.35678
-0.366811
-0.376851
-0.386897
-0.396948
-0.407001
-0.417055
-0.42711
-0.437165
-0.44722
-0.457274
-0.467328
-0.477382
-0.487435
-0.497488
-0.507541
-0.517593
-0.527645
-0.537697
-0.547749
-0.557801
-0.567852
-0.577904
-0.587955
-0.598006
-0.608057
-0.618108
-0.628159
-0.63821
-0.648261
-0.658312
-0.668362
-0.678413
-0.688464
-0.698514
-0.708565
-0.718615
-0.728666
-0.738716
-0.748767
-0.758817
-0.768867
-0.778918
-0.788968
-0.799018
-0.809069
-0.819119
-0.829169
-0.839218
-0.849267
-0.859313
-0.869356
-0.879396
-0.889435
-0.899477
-0.909523
-0.919572
-0.929621
-0.939671
-0.949721
-0.959771
-0.969821
-0.97987
-0.989916
-0.999955
-1.00998
-1.01999
-1.03
-1.04
-1.05
-1.06
-1.07001
-1.08004
-1.09013
-1.10034
-1.11064
-1.12086
-1.13096
-1.14099
-1.151
-1.161
-1.171
-1.181
-1.191
-1.201
-1.211
-1.221
-1.231
-1.241
-1.251
-1.261
-1.271
-1.28102
-1.29109
-1.3013
-1.31169
-1.32191
-1.33198
-1.342
-1.352
-1.362
-1.372
-1.382
-1.392
-1.402
-1.412
-1.422
-1.432
-1.442
-1.452
-1.462
-1.472
-1.482
-1.49201
-1.50205
-1.51226
-1.52274
-1.53294
-1.54299
-1.553
-1.563
-1.573
-1.583
-1.593
-1.603
-1.613
-1.623
-1.633
-1.643
-1.653
-1.663
-1.673
-1.683
-1.693
-1.70303
-1.71322
-1.72378
-1.73396
-1.744
-1.754
-1.764
-1.774
-1.784
-1.794
-1.804
-1.814
)
;

boundaryField
{
    bc0
    {
        type            fixedGradient;
        gradient        uniform -1;
    }
    bc1
    {
        type            zeroGradient;
    }
    bc2
    {
        type            zeroGradient;
    }
    bc3
    {
        type            zeroGradient;
    }
    top
    {
        type            zeroGradient;
    }
    bottom
    {
        type            zeroGradient;
    }
}


// ************************************************************************* //
