/*--------------------------------*- C++ -*----------------------------------*\
  =========                 |
  \\      /  F ield         | OpenFOAM: The Open Source CFD Toolbox
   \\    /   O peration     | Website:  https://openfoam.org
    \\  /    A nd           | Version:  6
     \\/     M anipulation  |
\*---------------------------------------------------------------------------*/
FoamFile
{
    version     2.0;
    format      ascii;
    class       surfaceScalarField;
    location    "172800";
    object      phiw;
}
// * * * * * * * * * * * * * * * * * * * * * * * * * * * * * * * * * * * * * //

dimensions      [0 3 -1 0 0 0 0];

internalField   nonuniform List<scalar> 
183
(
-5.79072e-07
-5.18835e-10
-4.98811e-10
-4.99327e-10
-4.99353e-10
-4.98756e-10
-4.97432e-10
-4.95293e-10
-4.92247e-10
-4.88192e-10
-4.83001e-10
-4.76526e-10
-4.68602e-10
-4.59047e-10
-4.4768e-10
-4.34327e-10
-4.18839e-10
-4.01109e-10
-3.81086e-10
-3.58794e-10
-3.34348e-10
-3.07965e-10
-2.79968e-10
-2.50792e-10
-2.20965e-10
-1.91093e-10
-1.61825e-10
-1.33819e-10
-1.07691e-10
-8.39735e-11
-6.30742e-11
-4.52431e-11
-3.05582e-11
-1.89281e-11
-1.01145e-11
-3.79482e-12
4.50918e-13
3.34195e-12
4.98313e-12
5.78884e-12
6.0213e-12
5.89048e-12
5.55341e-12
5.11908e-12
4.65706e-12
4.20751e-12
3.79057e-12
3.41395e-12
3.07842e-12
2.78136e-12
2.51878e-12
2.28649e-12
2.08055e-12
1.89747e-12
1.73423e-12
1.58825e-12
1.45736e-12
1.33968e-12
1.23362e-12
1.13781e-12
1.05107e-12
9.7238e-13
9.00858e-13
8.35729e-13
7.76319e-13
7.22035e-13
6.72354e-13
6.26818e-13
5.8502e-13
5.46598e-13
5.11232e-13
4.78636e-13
4.48556e-13
4.20764e-13
3.95056e-13
3.71248e-13
3.49175e-13
3.2869e-13
3.09658e-13
2.91958e-13
2.75477e-13
2.60105e-13
2.45709e-13
2.32085e-13
2.18817e-13
2.05107e-13
1.89705e-13
1.71598e-13
1.51892e-13
1.35445e-13
1.27884e-13
1.28663e-13
1.31608e-13
1.31959e-13
1.29076e-13
1.24286e-13
1.18824e-13
1.13187e-13
1.07175e-13
9.96456e-14
8.82411e-14
7.02669e-14
4.65366e-14
2.42145e-14
9.83404e-15
3.31249e-15
1.71178e-15
4.34449e-15
1.65519e-14
5.36402e-14
1.35508e-13
2.4808e-13
3.01719e-13
2.35292e-13
1.20585e-13
4.35778e-14
1.18224e-14
2.52458e-15
4.39506e-16
6.40468e-17
7.97286e-18
8.62396e-19
9.23132e-20
1.2203e-19
1.15849e-18
1.04919e-17
8.41068e-17
5.82701e-16
3.37982e-15
1.56884e-14
5.44574e-14
1.26882e-13
1.67716e-13
1.2054e-13
4.8895e-14
1.29756e-14
2.49175e-15
3.69583e-16
4.4242e-17
4.4096e-18
3.74475e-19
2.75794e-20
1.79468e-21
3.33765e-22
3.84912e-21
5.68524e-20
7.53421e-19
8.78334e-18
8.78567e-17
7.28443e-16
4.7593e-15
2.26115e-14
6.77629e-14
9.68272e-14
6.45401e-14
2.05042e-14
4.01014e-15
5.53562e-16
5.8353e-17
4.9377e-18
3.47036e-19
2.0765e-20
1.07671e-21
5.93442e-23
2.14527e-22
4.28993e-21
7.818e-20
1.24853e-18
1.7029e-17
1.91327e-16
1.67754e-15
1.05023e-14
3.96483e-14
6.02264e-14
3.78713e-14
9.60815e-15
1.43616e-15
1.49173e-16
1.1756e-17
7.41647e-19
3.88249e-20
1.73102e-21
6.74407e-23
)
;

boundaryField
{
    bc0
    {
        type            calculated;
        value           uniform 0;
    }
    bc1
    {
        type            calculated;
        value           uniform 0;
    }
    bc2
    {
        type            calculated;
        value           uniform 2.31482e-06;
    }
    bc3
    {
        type            calculated;
        value           uniform 0;
    }
    top
    {
        type            calculated;
        value           uniform 0;
    }
    bottom
    {
        type            calculated;
        value           uniform 0;
    }
}


// ************************************************************************* //
