/*--------------------------------*- C++ -*----------------------------------*\
  =========                 |
  \\      /  F ield         | OpenFOAM: The Open Source CFD Toolbox
   \\    /   O peration     | Website:  https://openfoam.org
    \\  /    A nd           | Version:  6
     \\/     M anipulation  |
\*---------------------------------------------------------------------------*/
FoamFile
{
    version     2.0;
    format      ascii;
    class       volVectorField;
    location    "172800";
    object      Uw;
}
// * * * * * * * * * * * * * * * * * * * * * * * * * * * * * * * * * * * * * //

dimensions      [0 1 -1 0 0 0 0];

internalField   nonuniform List<vector> 
184
(
(0 -1.44694e-06 0)
(0 -2.89795e-07 0)
(0 -5.08823e-10 0)
(0 -4.99069e-10 0)
(0 -4.9934e-10 0)
(0 -4.99055e-10 0)
(0 -4.98094e-10 0)
(0 -4.96362e-10 0)
(0 -4.9377e-10 0)
(0 -4.90219e-10 0)
(0 -4.85596e-10 0)
(0 -4.79764e-10 0)
(0 -4.72564e-10 0)
(0 -4.63825e-10 0)
(0 -4.53364e-10 0)
(0 -4.41003e-10 0)
(0 -4.26583e-10 0)
(0 -4.09974e-10 0)
(0 -3.91098e-10 0)
(0 -3.6994e-10 0)
(0 -3.46571e-10 0)
(0 -3.21156e-10 0)
(0 -2.93966e-10 0)
(0 -2.6538e-10 0)
(0 -2.35879e-10 0)
(0 -2.06029e-10 0)
(0 -1.76459e-10 0)
(0 -1.47822e-10 0)
(0 -1.20755e-10 0)
(0 -9.5832e-11 0)
(0 -7.35239e-11 0)
(0 -5.41587e-11 0)
(0 -3.79006e-11 0)
(0 -2.47431e-11 0)
(0 -1.45213e-11 0)
(0 -6.95467e-12 0)
(0 -1.67195e-12 0)
(0 1.89643e-12 0)
(0 4.16254e-12 0)
(0 5.38598e-12 0)
(0 5.90507e-12 0)
(0 5.95589e-12 0)
(0 5.72195e-12 0)
(0 5.33625e-12 0)
(0 4.88807e-12 0)
(0 4.43228e-12 0)
(0 3.99904e-12 0)
(0 3.60226e-12 0)
(0 3.24619e-12 0)
(0 2.92989e-12 0)
(0 2.65007e-12 0)
(0 2.40264e-12 0)
(0 2.18352e-12 0)
(0 1.98901e-12 0)
(0 1.81585e-12 0)
(0 1.66124e-12 0)
(0 1.52281e-12 0)
(0 1.39852e-12 0)
(0 1.28665e-12 0)
(0 1.18571e-12 0)
(0 1.09444e-12 0)
(0 1.01172e-12 0)
(0 9.36619e-13 0)
(0 8.68294e-13 0)
(0 8.06024e-13 0)
(0 7.49177e-13 0)
(0 6.97194e-13 0)
(0 6.49586e-13 0)
(0 6.05919e-13 0)
(0 5.65809e-13 0)
(0 5.28915e-13 0)
(0 4.94934e-13 0)
(0 4.63596e-13 0)
(0 4.3466e-13 0)
(0 4.0791e-13 0)
(0 3.83152e-13 0)
(0 3.60211e-13 0)
(0 3.38933e-13 0)
(0 3.19174e-13 0)
(0 3.00808e-13 0)
(0 2.83718e-13 0)
(0 2.67791e-13 0)
(0 2.52907e-13 0)
(0 2.38897e-13 0)
(0 2.25451e-13 0)
(0 2.11962e-13 0)
(0 1.97406e-13 0)
(0 1.80651e-13 0)
(0 1.61745e-13 0)
(0 1.43669e-13 0)
(0 1.31664e-13 0)
(0 1.28273e-13 0)
(0 1.30136e-13 0)
(0 1.31784e-13 0)
(0 1.30518e-13 0)
(0 1.26681e-13 0)
(0 1.21555e-13 0)
(0 1.16006e-13 0)
(0 1.10181e-13 0)
(0 1.0341e-13 0)
(0 9.39434e-14 0)
(0 7.9254e-14 0)
(0 5.84018e-14 0)
(0 3.53756e-14 0)
(0 1.70243e-14 0)
(0 6.57326e-15 0)
(0 2.51213e-15 0)
(0 3.02814e-15 0)
(0 1.04482e-14 0)
(0 3.50961e-14 0)
(0 9.45739e-14 0)
(0 1.91794e-13 0)
(0 2.749e-13 0)
(0 2.68506e-13 0)
(0 1.77938e-13 0)
(0 8.20812e-14 0)
(0 2.77001e-14 0)
(0 7.17349e-15 0)
(0 1.48204e-15 0)
(0 2.51777e-16 0)
(0 3.60098e-17 0)
(0 4.41763e-18 0)
(0 4.77354e-19 0)
(0 1.07171e-19 0)
(0 6.40258e-19 0)
(0 5.8252e-18 0)
(0 4.72994e-17 0)
(0 3.33404e-16 0)
(0 1.98126e-15 0)
(0 9.53411e-15 0)
(0 3.50729e-14 0)
(0 9.06696e-14 0)
(0 1.47299e-13 0)
(0 1.44128e-13 0)
(0 8.47176e-14 0)
(0 3.09353e-14 0)
(0 7.73367e-15 0)
(0 1.43067e-15 0)
(0 2.06912e-16 0)
(0 2.43258e-17 0)
(0 2.39204e-18 0)
(0 2.01027e-19 0)
(0 1.4687e-20 0)
(0 1.06422e-21 0)
(0 2.09144e-21 0)
(0 3.03508e-20 0)
(0 4.05137e-19 0)
(0 4.76838e-18 0)
(0 4.832e-17 0)
(0 4.0815e-16 0)
(0 2.74387e-15 0)
(0 1.36854e-14 0)
(0 4.51872e-14 0)
(0 8.2295e-14 0)
(0 8.06836e-14 0)
(0 4.25222e-14 0)
(0 1.22572e-14 0)
(0 2.28185e-15 0)
(0 3.05957e-16 0)
(0 3.16454e-17 0)
(0 2.64237e-18 0)
(0 1.83901e-19 0)
(0 1.09208e-20 0)
(0 5.68029e-22 0)
(0 1.36936e-22 0)
(0 2.25223e-21 0)
(0 4.12349e-20 0)
(0 6.63353e-19 0)
(0 9.13878e-18 0)
(0 1.04178e-16 0)
(0 9.34433e-16 0)
(0 6.08994e-15 0)
(0 2.50753e-14 0)
(0 4.99374e-14 0)
(0 4.90489e-14 0)
(0 2.37397e-14 0)
(0 5.52215e-15 0)
(0 7.92667e-16 0)
(0 8.04645e-17 0)
(0 6.24881e-18 0)
(0 3.90236e-19 0)
(0 2.0278e-20 0)
(0 8.99228e-22 0)
(0 3.37203e-23 0)
)
;

boundaryField
{
    bc0
    {
        type            zeroGradient;
    }
    bc1
    {
        type            zeroGradient;
    }
    bc2
    {
        type            zeroGradient;
    }
    bc3
    {
        type            zeroGradient;
    }
    top
    {
        type            zeroGradient;
    }
    bottom
    {
        type            zeroGradient;
    }
}


// ************************************************************************* //
