/*--------------------------------*- C++ -*----------------------------------*\
  =========                 |
  \\      /  F ield         | OpenFOAM: The Open Source CFD Toolbox
   \\    /   O peration     | Website:  https://openfoam.org
    \\  /    A nd           | Version:  6
     \\/     M anipulation  |
\*---------------------------------------------------------------------------*/
FoamFile
{
    version     2.0;
    format      ascii;
    class       volScalarField;
    location    "432000";
    object      Cg0;
}
// * * * * * * * * * * * * * * * * * * * * * * * * * * * * * * * * * * * * * //

dimensions      [1 -3 0 0 0 0 0];

internalField   nonuniform List<scalar> 
184
(
4.34187e-10
4.34187e-10
4.3417e-10
4.34015e-10
4.3442e-10
4.44251e-10
7.51577e-10
5.48263e-09
5.65285e-09
1.47168e-07
0.000378758
0.00316062
0.0078995
0.0142951
0.0218802
0.0302138
0.0389458
0.0478221
0.0566678
0.0653667
0.0738439
0.0820532
0.0899676
0.0975732
0.104865
0.111842
0.11851
0.12461
0.117486
0.110443
0.103729
0.0973297
0.0912324
0.0854255
0.0798974
0.0746375
0.0696353
0.064881
0.0603648
0.0560775
0.05201
0.0481534
0.0444991
0.0410388
0.0377642
0.0346674
0.0317406
0.0289763
0.026367
0.0239057
0.0215855
0.0193996
0.0173417
0.0154053
0.0135846
0.0118737
0.0102667
0.00875797
0.00734373
0.00601765
0.0047743
0.00361058
0.00252129
0.00150149
0.000548204
5.78561e-06
1.3967e-06
5.17197e-07
2.14492e-07
8.8748e-08
3.70785e-08
1.58744e-08
6.84751e-09
3.49076e-09
5.11808e-09
5.00498e-09
4.57979e-09
4.46411e-09
5.1956e-09
5.20497e-09
5.54442e-09
5.48014e-09
5.52218e-09
5.12827e-09
4.75961e-09
4.41664e-09
4.09871e-09
3.80472e-09
3.53339e-09
3.2834e-09
3.05343e-09
2.84218e-09
2.64835e-09
2.47068e-09
2.30793e-09
2.15891e-09
2.02247e-09
1.89753e-09
1.78306e-09
1.67812e-09
1.58182e-09
1.49337e-09
1.41204e-09
1.33716e-09
1.26813e-09
1.20443e-09
1.14558e-09
1.09116e-09
1.04078e-09
9.94116e-10
9.50865e-10
9.10761e-10
8.73565e-10
8.39062e-10
8.07058e-10
7.77378e-10
7.49862e-10
7.24363e-10
7.00748e-10
6.78893e-10
6.58683e-10
6.40011e-10
6.22779e-10
6.06893e-10
5.92265e-10
5.78814e-10
5.66463e-10
5.55139e-10
5.44774e-10
5.35302e-10
5.26664e-10
5.18802e-10
5.11661e-10
5.05189e-10
4.99339e-10
4.94064e-10
4.8932e-10
4.85065e-10
4.81259e-10
4.77865e-10
4.74845e-10
4.72166e-10
4.69792e-10
4.67692e-10
4.65835e-10
4.64195e-10
4.62738e-10
4.60687e-10
4.62319e-10
4.60514e-10
4.52322e-10
4.46905e-10
4.42098e-10
4.37463e-10
4.32854e-10
4.28186e-10
4.23427e-10
4.18597e-10
4.1377e-10
4.09047e-10
4.04532e-10
4.00312e-10
3.96438e-10
3.92931e-10
3.89783e-10
3.86969e-10
3.84457e-10
3.82216e-10
3.80222e-10
3.78463e-10
3.76943e-10
3.75692e-10
3.74779e-10
3.74336e-10
3.7447e-10
3.75488e-10
3.77676e-10
3.81337e-10
3.86709e-10
3.93871e-10
4.02672e-10
4.1272e-10
4.23457e-10
4.34187e-10
)
;

boundaryField
{
    bc0
    {
        type            zeroGradient;
    }
    bc1
    {
        type            zeroGradient;
    }
    bc2
    {
        type            zeroGradient;
    }
    bc3
    {
        type            zeroGradient;
    }
    top
    {
        type            zeroGradient;
    }
    bottom
    {
        type            zeroGradient;
    }
}


// ************************************************************************* //
