/*--------------------------------*- C++ -*----------------------------------*\
  =========                 |
  \\      /  F ield         | OpenFOAM: The Open Source CFD Toolbox
   \\    /   O peration     | Website:  https://openfoam.org
    \\  /    A nd           | Version:  6
     \\/     M anipulation  |
\*---------------------------------------------------------------------------*/
FoamFile
{
    version     2.0;
    format      ascii;
    class       volScalarField;
    location    "432000";
    object      Cg1;
}
// * * * * * * * * * * * * * * * * * * * * * * * * * * * * * * * * * * * * * //

dimensions      [1 -3 0 0 0 0 0];

internalField   nonuniform List<scalar> 
184
(
0.000874926
0.000874926
0.000874897
0.000874886
0.000877839
0.000941297
0.0019481
0.00876074
0.0259423
0.0480244
0.0660125
0.0731387
0.0787216
0.0830691
0.0864714
0.0891654
0.0913314
0.093102
0.094574
0.0958185
0.0968881
0.0978223
0.0986507
0.0993961
0.100076
0.100705
0.101292
0.101752
0.103313
0.104711
0.106047
0.107323
0.108544
0.109712
0.11083
0.111899
0.112923
0.113903
0.114841
0.11574
0.1166
0.117424
0.118212
0.118968
0.119691
0.120384
0.121048
0.121683
0.122293
0.122877
0.123436
0.123973
0.124487
0.124981
0.125454
0.125909
0.126347
0.126773
0.127173
0.127559
0.127936
0.128299
0.128643
0.128977
0.1293
0.127661
0.12255
0.117595
0.112809
0.108188
0.103728
0.0994245
0.0952727
0.0912687
0.0874083
0.0836877
0.0801029
0.0766502
0.0733257
0.0701258
0.0670468
0.0640852
0.0612374
0.0585
0.0558696
0.0533428
0.0509163
0.0485871
0.0463519
0.0442077
0.0421514
0.0401802
0.0382911
0.0364815
0.0347485
0.0330894
0.0315018
0.029983
0.0285305
0.027142
0.0258151
0.0245475
0.0233371
0.0221815
0.0210788
0.0200269
0.0190239
0.0180677
0.0171565
0.0162886
0.0154622
0.0146757
0.0139272
0.0132154
0.0125387
0.0118955
0.0112844
0.0107041
0.0101532
0.00963051
0.00913467
0.00866456
0.00821902
0.00779695
0.0073973
0.00701906
0.00666126
0.00632296
0.00600327
0.00570134
0.00541637
0.00514756
0.00489418
0.00465553
0.00443093
0.00421974
0.00402135
0.00383519
0.00366072
0.00349742
0.00334481
0.00320246
0.00306993
0.00294683
0.00283282
0.00272756
0.00263074
0.00254015
0.0024528
0.00235128
0.00223121
0.00210298
0.00196812
0.00183117
0.0016968
0.00156899
0.00145071
0.00134382
0.00124921
0.00116695
0.0010965
0.00103696
0.000987154
0.000945867
0.000911881
0.000884071
0.000861453
0.000843201
0.000828661
0.000817343
0.0008089
0.000803098
0.000799785
0.000798846
0.000800171
0.000803618
0.000809031
0.000816001
0.000824477
0.000833948
0.000844076
0.0008545
0.000864882
0.000874926
)
;

boundaryField
{
    bc0
    {
        type            zeroGradient;
    }
    bc1
    {
        type            zeroGradient;
    }
    bc2
    {
        type            zeroGradient;
    }
    bc3
    {
        type            zeroGradient;
    }
    top
    {
        type            zeroGradient;
    }
    bottom
    {
        type            zeroGradient;
    }
}


// ************************************************************************* //
