/*--------------------------------*- C++ -*----------------------------------*\
  =========                 |
  \\      /  F ield         | OpenFOAM: The Open Source CFD Toolbox
   \\    /   O peration     | Website:  https://openfoam.org
    \\  /    A nd           | Version:  6
     \\/     M anipulation  |
\*---------------------------------------------------------------------------*/
FoamFile
{
    version     2.0;
    format      ascii;
    class       volScalarField;
    location    "432000";
    object      Cg2;
}
// * * * * * * * * * * * * * * * * * * * * * * * * * * * * * * * * * * * * * //

dimensions      [1 -3 0 0 0 0 0];

internalField   nonuniform List<scalar> 
184
(
0.799284
0.799284
0.799288
0.79936
0.802395
0.830488
0.88614
0.926041
0.941102
0.940828
0.933592
0.923688
0.913361
0.902619
0.891634
0.880608
0.869712
0.859067
0.84875
0.838808
0.829262
0.82012
0.811378
0.803028
0.795057
0.787452
0.780197
0.773639
0.7792
0.784843
0.790221
0.795343
0.800219
0.804857
0.809267
0.813456
0.817434
0.821208
0.824785
0.828173
0.83138
0.834412
0.837277
0.839981
0.842532
0.844935
0.847197
0.849325
0.851325
0.853202
0.854962
0.856611
0.858154
0.859596
0.860943
0.862198
0.863368
0.86446
0.865468
0.866405
0.867274
0.86808
0.868823
0.869509
0.870144
0.870079
0.868732
0.867377
0.866022
0.864669
0.863318
0.861971
0.860628
0.85929
0.857959
0.856634
0.855317
0.854009
0.852711
0.851423
0.850146
0.848882
0.84763
0.846393
0.845169
0.84396
0.842767
0.841589
0.840428
0.839284
0.838157
0.837048
0.835957
0.834884
0.83383
0.832795
0.831779
0.830782
0.829805
0.828848
0.82791
0.826992
0.826094
0.825216
0.824358
0.82352
0.822702
0.821904
0.821125
0.820366
0.819627
0.818908
0.818208
0.817527
0.816865
0.816223
0.815599
0.814993
0.814407
0.813838
0.813287
0.812754
0.812239
0.811741
0.811261
0.810797
0.81035
0.80992
0.809506
0.809108
0.808726
0.80836
0.808009
0.807674
0.807354
0.807049
0.806759
0.806483
0.806223
0.805976
0.805744
0.805526
0.805322
0.805132
0.804956
0.804794
0.804646
0.804511
0.804369
0.804225
0.804069
0.803883
0.803674
0.803446
0.803206
0.802959
0.802711
0.802466
0.80223
0.802007
0.801798
0.801606
0.801432
0.801277
0.801138
0.801015
0.800906
0.800809
0.80072
0.800637
0.800557
0.800477
0.800395
0.80031
0.80022
0.800125
0.800025
0.799921
0.799814
0.799705
0.799596
0.799488
0.799384
0.799285
)
;

boundaryField
{
    bc0
    {
        type            zeroGradient;
    }
    bc1
    {
        type            zeroGradient;
    }
    bc2
    {
        type            zeroGradient;
    }
    bc3
    {
        type            zeroGradient;
    }
    top
    {
        type            zeroGradient;
    }
    bottom
    {
        type            zeroGradient;
    }
}


// ************************************************************************* //
