/*--------------------------------*- C++ -*----------------------------------*\
  =========                 |
  \\      /  F ield         | OpenFOAM: The Open Source CFD Toolbox
   \\    /   O peration     | Website:  https://openfoam.org
    \\  /    A nd           | Version:  6
     \\/     M anipulation  |
\*---------------------------------------------------------------------------*/
FoamFile
{
    version     2.0;
    format      ascii;
    class       volScalarField;
    location    "432000";
    object      Cg3;
}
// * * * * * * * * * * * * * * * * * * * * * * * * * * * * * * * * * * * * * //

dimensions      [1 -3 0 0 0 0 0];

internalField   nonuniform List<scalar> 
184
(
0.199841
0.199841
0.199838
0.199765
0.196727
0.168571
0.111912
0.0651979
0.0329553
0.0111473
1.69105e-05
1.31983e-05
1.80285e-05
1.65025e-05
1.42958e-05
1.23812e-05
1.07062e-05
9.22549e-06
7.90485e-06
6.71666e-06
5.63852e-06
4.65221e-06
3.74268e-06
2.89899e-06
2.11313e-06
1.37099e-06
6.7008e-07
3.10074e-75
1.00122e-06
1.95367e-06
2.87114e-06
3.75262e-06
4.60389e-06
5.42697e-06
6.22416e-06
6.9973e-06
7.74793e-06
8.47735e-06
9.18665e-06
9.87676e-06
1.05486e-05
1.12028e-05
1.18404e-05
1.24623e-05
1.30692e-05
1.36621e-05
1.42419e-05
1.48092e-05
1.53643e-05
1.59074e-05
1.64386e-05
1.69592e-05
1.74736e-05
1.79942e-05
1.85539e-05
1.92461e-05
1.7527e-05
8.9488e-06
1.57592e-05
1.8206e-05
1.48235e-05
1.06284e-05
1.23187e-05
1.21172e-05
8.21419e-06
0.00225455
0.00871725
0.0150278
0.0211687
0.0271426
0.0329532
0.0386042
0.0440991
0.0494409
0.0546331
0.0596785
0.0645801
0.0693409
0.0739637
0.0784514
0.0828069
0.0870328
0.091132
0.0951074
0.0989615
0.102697
0.106317
0.109824
0.11322
0.116508
0.119692
0.122772
0.125752
0.128634
0.131422
0.134116
0.136719
0.139235
0.141664
0.14401
0.146275
0.14846
0.150569
0.152602
0.154563
0.156453
0.158274
0.160029
0.161718
0.163345
0.16491
0.166416
0.167865
0.169258
0.170596
0.171882
0.173117
0.174302
0.17544
0.176532
0.177578
0.178581
0.179542
0.180462
0.181342
0.182184
0.182989
0.183757
0.184491
0.185191
0.185858
0.186493
0.187097
0.187671
0.188215
0.188731
0.18922
0.189681
0.190117
0.190526
0.190911
0.191271
0.191608
0.191921
0.192211
0.192478
0.192724
0.192948
0.193178
0.193424
0.1937
0.194014
0.194358
0.194723
0.195097
0.195472
0.195838
0.19619
0.19652
0.196826
0.197105
0.197357
0.19758
0.197778
0.19795
0.198101
0.198232
0.198348
0.198451
0.198545
0.198634
0.19872
0.198805
0.198891
0.19898
0.199071
0.199166
0.199263
0.199362
0.199461
0.19956
0.199657
0.199751
0.19984
)
;

boundaryField
{
    bc0
    {
        type            zeroGradient;
    }
    bc1
    {
        type            zeroGradient;
    }
    bc2
    {
        type            zeroGradient;
    }
    bc3
    {
        type            zeroGradient;
    }
    top
    {
        type            zeroGradient;
    }
    bottom
    {
        type            zeroGradient;
    }
}


// ************************************************************************* //
