/*--------------------------------*- C++ -*----------------------------------*\
  =========                 |
  \\      /  F ield         | OpenFOAM: The Open Source CFD Toolbox
   \\    /   O peration     | Website:  https://openfoam.org
    \\  /    A nd           | Version:  6
     \\/     M anipulation  |
\*---------------------------------------------------------------------------*/
FoamFile
{
    version     2.0;
    format      ascii;
    class       volScalarField;
    location    "432000";
    object      Cw1;
}
// * * * * * * * * * * * * * * * * * * * * * * * * * * * * * * * * * * * * * //

dimensions      [0 -3 0 0 1 0 0];

internalField   nonuniform List<scalar> 
184
(
0.000431363
0.000431363
0.000431339
0.000431061
0.000431113
0.000431314
0.000432345
0.000433542
0.000434958
0.00043664
0.000437997
0.000438543
0.000438975
0.00043932
0.000439568
0.0004398
0.000439949
0.000440111
0.000440204
0.000440327
0.000440385
0.000440485
0.000440524
0.000440689
0.000443669
0.00052966
0.00228152
0.0166013
0.00170222
0.000489812
0.00044227
0.000441199
0.000441284
0.00044134
0.000441448
0.0004415
0.0004416
0.000441646
0.000441739
0.00044178
0.000441866
0.000441904
0.000441984
0.000442018
0.000442092
0.000442123
0.000442192
0.00044222
0.000442283
0.000442308
0.000442367
0.00044239
0.000442444
0.000442464
0.000442514
0.000442533
0.000442581
0.000442598
0.000442641
0.000442656
0.000442697
0.000442709
0.000442746
0.000442756
0.000442788
0.000442653
0.000442294
0.000441921
0.000441581
0.000441231
0.000440914
0.000440586
0.00044029
0.000439985
0.00043971
0.000439425
0.000439169
0.000438905
0.000438667
0.000438421
0.000438201
0.000437973
0.000437769
0.000437557
0.000437369
0.000437173
0.000436999
0.000436817
0.000436657
0.000436489
0.000436338
0.000436193
0.000436044
0.000435914
0.000435776
0.000435657
0.00043553
0.000435421
0.000435304
0.000435203
0.000435095
0.000435004
0.000434904
0.000434817
0.000434731
0.000434648
0.000434569
0.000434493
0.000434419
0.000434349
0.000434281
0.000434217
0.000434181
0.000434073
0.000434039
0.000433985
0.000433931
0.000433879
0.000433829
0.000433781
0.000433734
0.000433689
0.000433645
0.000433602
0.00043356
0.000433519
0.00043348
0.000433441
0.000433402
0.000433364
0.000433326
0.00043329
0.000433273
0.000433202
0.000433185
0.00043315
0.000433115
0.00043308
0.000433045
0.000433011
0.000432978
0.000432944
0.000432911
0.000432879
0.000432847
0.000432845
0.000433024
0.000429242
0.00044598
0.000492411
0.000477925
0.00046626
0.000457562
0.000450307
0.00044356
0.00043697
0.000430501
0.000424244
0.000418304
0.000412753
0.000407618
0.000402891
0.000398545
0.000394546
0.000390863
0.000387475
0.000384367
0.000381532
0.000378967
0.000376666
0.000374622
0.000372824
0.000371257
0.000369903
0.000368749
0.000367794
0.000367072
0.000366675
0.000366653
0.000367605
0.000370931
0.000379577
0.000399253
0.000431363
)
;

boundaryField
{
    bc0
    {
        type            zeroGradient;
    }
    bc1
    {
        type            zeroGradient;
    }
    bc2
    {
        type            zeroGradient;
    }
    bc3
    {
        type            zeroGradient;
    }
    top
    {
        type            zeroGradient;
    }
    bottom
    {
        type            zeroGradient;
    }
}


// ************************************************************************* //
