/*--------------------------------*- C++ -*----------------------------------*\
  =========                 |
  \\      /  F ield         | OpenFOAM: The Open Source CFD Toolbox
   \\    /   O peration     | Website:  https://openfoam.org
    \\  /    A nd           | Version:  6
     \\/     M anipulation  |
\*---------------------------------------------------------------------------*/
FoamFile
{
    version     2.0;
    format      ascii;
    class       volScalarField;
    location    "432000";
    object      Cw2;
}
// * * * * * * * * * * * * * * * * * * * * * * * * * * * * * * * * * * * * * //

dimensions      [0 -3 0 0 1 0 0];

internalField   nonuniform List<scalar> 
184
(
0.0018661
0.0018661
0.00186601
0.00186499
0.00185758
0.00179043
0.00171592
0.0020609
0.00314646
0.00459147
0.00578566
0.00627022
0.00664944
0.00694478
0.00717598
0.0073593
0.0075067
0.00762741
0.00772771
0.0078127
0.00788565
0.00794953
0.00800605
0.0080573
0.00811259
0.00841505
0.0137169
0.0567297
0.0121155
0.00856648
0.0085133
0.00859659
0.00867956
0.00875885
0.00883488
0.0089075
0.00897717
0.00904372
0.00910759
0.0091686
0.00922717
0.00928312
0.00933683
0.00938815
0.00943742
0.0094845
0.00952972
0.00957292
0.00961444
0.00965411
0.00969225
0.00972871
0.00976376
0.00979728
0.0098295
0.00986036
0.00989058
0.00991951
0.00994675
0.00997301
0.0099985
0.0100226
0.0100454
0.0100664
0.0100845
0.00997637
0.00964983
0.00933093
0.00902207
0.00872351
0.00843533
0.00815723
0.00788908
0.00763052
0.00738139
0.00714132
0.00691018
0.00668759
0.00647343
0.00626734
0.00606918
0.00587861
0.00569552
0.00551955
0.0053506
0.00518834
0.00503266
0.00488325
0.00473999
0.0046026
0.00447095
0.00434482
0.00422399
0.00410834
0.00399762
0.00389174
0.00379043
0.00369362
0.00360106
0.00351267
0.00342823
0.00334765
0.00327072
0.00319736
0.00312739
0.0030607
0.00299715
0.00293662
0.00287899
0.00282413
0.00277193
0.0027223
0.00267518
0.00263019
0.00258766
0.00254721
0.0025088
0.00247237
0.0024378
0.00240504
0.00237398
0.00234457
0.00231671
0.00229035
0.0022654
0.00224182
0.00221952
0.00219846
0.00217858
0.00215981
0.00214211
0.00212542
0.00210977
0.00209487
0.00208101
0.00206794
0.00205566
0.00204415
0.00203336
0.00202326
0.00201383
0.00200504
0.00199686
0.00198928
0.00198228
0.00197597
0.00197086
0.00195449
0.00200023
0.00213385
0.0020828
0.0020396
0.00200488
0.00197443
0.00194577
0.00191808
0.00189143
0.00186619
0.00184272
0.00182121
0.0018017
0.0017841
0.00176824
0.00175393
0.00174101
0.00172933
0.00171881
0.00170936
0.00170094
0.0016935
0.00168702
0.00168145
0.00167674
0.00167284
0.00166969
0.00166729
0.00166573
0.00166527
0.00166603
0.0016698
0.00168077
0.0017078
0.0017681
0.0018661
)
;

boundaryField
{
    bc0
    {
        type            zeroGradient;
    }
    bc1
    {
        type            zeroGradient;
    }
    bc2
    {
        type            zeroGradient;
    }
    bc3
    {
        type            zeroGradient;
    }
    top
    {
        type            zeroGradient;
    }
    bottom
    {
        type            zeroGradient;
    }
}


// ************************************************************************* //
