/*--------------------------------*- C++ -*----------------------------------*\
  =========                 |
  \\      /  F ield         | OpenFOAM: The Open Source CFD Toolbox
   \\    /   O peration     | Website:  https://openfoam.org
    \\  /    A nd           | Version:  6
     \\/     M anipulation  |
\*---------------------------------------------------------------------------*/
FoamFile
{
    version     2.0;
    format      ascii;
    class       volScalarField;
    location    "432000";
    object      Cw4;
}
// * * * * * * * * * * * * * * * * * * * * * * * * * * * * * * * * * * * * * //

dimensions      [0 -3 0 0 1 0 0];

internalField   nonuniform List<scalar> 
184
(
7.80344e-11
7.80344e-11
7.80304e-11
7.80033e-11
7.80765e-11
7.98457e-11
1.35076e-10
9.85195e-10
1.01565e-09
2.64403e-08
6.8049e-05
0.000567873
0.00141924
0.0025682
0.00393091
0.00542822
0.00699727
0.00859245
0.0101823
0.0117459
0.0132698
0.0147457
0.0161686
0.0175361
0.0188471
0.0201013
0.0212956
0.0223427
0.0211133
0.0198506
0.018644
0.0174938
0.0163978
0.0153541
0.0143604
0.013415
0.0125159
0.0116614
0.0108497
0.0100791
0.00934803
0.00865488
0.0079981
0.00737618
0.00678764
0.00623106
0.00570502
0.00520818
0.00473921
0.00429684
0.00387981
0.00348694
0.00311704
0.002769
0.00244174
0.00213421
0.00184545
0.00157425
0.00132004
0.00108168
0.000858169
0.000648961
0.000453134
0.000269803
9.84631e-05
1.03886e-06
2.50913e-07
9.29333e-08
3.85449e-08
1.59489e-08
6.66352e-09
2.85287e-09
1.23061e-09
6.27348e-10
9.19806e-10
8.9948e-10
8.23067e-10
8.02278e-10
9.33741e-10
9.35426e-10
9.96433e-10
9.84882e-10
9.92438e-10
9.21646e-10
8.55391e-10
7.93753e-10
7.36617e-10
6.83781e-10
6.35019e-10
5.90092e-10
5.48763e-10
5.10797e-10
4.75963e-10
4.44032e-10
4.14783e-10
3.88001e-10
3.6348e-10
3.41025e-10
3.20453e-10
3.01593e-10
2.84287e-10
2.68391e-10
2.53774e-10
2.40316e-10
2.27911e-10
2.16463e-10
2.05886e-10
1.96105e-10
1.87051e-10
1.78665e-10
1.70892e-10
1.63684e-10
1.57e-10
1.50799e-10
1.45047e-10
1.39713e-10
1.34768e-10
1.30185e-10
1.25941e-10
1.22013e-10
1.18381e-10
1.15025e-10
1.11928e-10
1.09073e-10
1.06444e-10
1.04027e-10
1.01807e-10
9.97718e-11
9.79089e-11
9.62067e-11
9.46543e-11
9.32412e-11
9.19578e-11
9.07948e-11
8.97434e-11
8.87954e-11
8.79427e-11
8.71781e-11
8.64942e-11
8.58843e-11
8.5342e-11
8.48611e-11
8.44361e-11
8.40621e-11
8.37353e-11
8.34557e-11
8.32257e-11
8.29241e-11
8.33121e-11
8.30208e-11
8.15311e-11
8.05177e-11
7.96064e-11
7.87277e-11
7.78594e-11
7.69872e-11
7.61045e-11
7.52146e-11
7.43296e-11
7.3467e-11
7.26448e-11
7.1878e-11
7.11756e-11
7.05408e-11
6.99718e-11
6.94639e-11
6.90111e-11
6.86077e-11
6.82494e-11
6.79338e-11
6.76615e-11
6.74379e-11
6.72754e-11
6.71974e-11
6.72233e-11
6.74083e-11
6.78034e-11
6.84633e-11
6.94308e-11
7.07199e-11
7.23044e-11
7.41157e-11
7.60595e-11
7.80344e-11
)
;

boundaryField
{
    bc0
    {
        type            zeroGradient;
    }
    bc1
    {
        type            zeroGradient;
    }
    bc2
    {
        type            zeroGradient;
    }
    bc3
    {
        type            zeroGradient;
    }
    top
    {
        type            zeroGradient;
    }
    bottom
    {
        type            zeroGradient;
    }
}


// ************************************************************************* //
