/*--------------------------------*- C++ -*----------------------------------*\
  =========                 |
  \\      /  F ield         | OpenFOAM: The Open Source CFD Toolbox
   \\    /   O peration     | Website:  https://openfoam.org
    \\  /    A nd           | Version:  6
     \\/     M anipulation  |
\*---------------------------------------------------------------------------*/
FoamFile
{
    version     2.0;
    format      ascii;
    class       volScalarField;
    location    "432000";
    object      Cw5;
}
// * * * * * * * * * * * * * * * * * * * * * * * * * * * * * * * * * * * * * //

dimensions      [0 -3 0 0 1 0 0];

internalField   nonuniform List<scalar> 
184
(
0.000461667
0.000461667
0.000461642
0.000461363
0.000461513
0.000463823
0.000498675
0.000730538
0.00131414
0.00206407
0.00267503
0.00291717
0.00310666
0.00325425
0.00336979
0.00346138
0.00353505
0.00359536
0.00364549
0.00368795
0.00372441
0.00375632
0.00378458
0.00381014
0.00383629
0.00394424
0.00571795
0.0200582
0.0052071
0.00404007
0.00403746
0.00407967
0.00412114
0.00416078
0.00419876
0.00423506
0.00426986
0.00430313
0.00433503
0.00436554
0.00439479
0.00442276
0.00444959
0.00447525
0.00449986
0.0045234
0.00454598
0.00456758
0.00458832
0.00460815
0.0046272
0.00464543
0.00466294
0.00467969
0.00469579
0.00471122
0.00472631
0.00474079
0.00475438
0.00476751
0.00478025
0.00479232
0.00480367
0.00481418
0.00482322
0.00476634
0.0045949
0.00442749
0.00426529
0.00410847
0.00395704
0.00381086
0.00366984
0.00353381
0.00340268
0.00327628
0.00315451
0.00303721
0.00292428
0.00281556
0.00271097
0.00261035
0.00251362
0.00242061
0.00233126
0.00224541
0.00216299
0.00208385
0.00200792
0.00193507
0.00186522
0.00179825
0.00173407
0.0016726
0.00161371
0.00155736
0.00150341
0.00145182
0.00140247
0.0013553
0.00131022
0.00126716
0.00122602
0.00118677
0.0011493
0.00111357
0.00107948
0.001047
0.00101604
0.00098655
0.000958471
0.000931744
0.00090634
0.000882104
0.000859132
0.000837276
0.000816511
0.000796791
0.00077807
0.000760304
0.000743453
0.000727474
0.000712331
0.000697984
0.000684399
0.00067154
0.000659376
0.000647873
0.000637002
0.000626734
0.000617042
0.000607898
0.000599298
0.000591142
0.000583518
0.00057633
0.000569577
0.000563238
0.000557296
0.000551734
0.000546535
0.000541684
0.000537168
0.000532975
0.000529094
0.000525547
0.000522485
0.0005157
0.000529605
0.000572722
0.000554128
0.000538065
0.000524749
0.000512815
0.000501489
0.000490553
0.000480068
0.000470187
0.000461043
0.000452708
0.000445191
0.000438453
0.000432424
0.00042703
0.000422198
0.000417868
0.000413995
0.000410541
0.000407481
0.000404795
0.000402462
0.000400465
0.000398782
0.000397392
0.000396279
0.000395435
0.000394892
0.000394727
0.000394989
0.000396261
0.000399939
0.000408967
0.00042907
0.000461667
)
;

boundaryField
{
    bc0
    {
        type            zeroGradient;
    }
    bc1
    {
        type            zeroGradient;
    }
    bc2
    {
        type            zeroGradient;
    }
    bc3
    {
        type            zeroGradient;
    }
    top
    {
        type            zeroGradient;
    }
    bottom
    {
        type            zeroGradient;
    }
}


// ************************************************************************* //
