/*--------------------------------*- C++ -*----------------------------------*\
  =========                 |
  \\      /  F ield         | OpenFOAM: The Open Source CFD Toolbox
   \\    /   O peration     | Website:  https://openfoam.org
    \\  /    A nd           | Version:  6
     \\/     M anipulation  |
\*---------------------------------------------------------------------------*/
FoamFile
{
    version     2.0;
    format      ascii;
    class       volScalarField;
    location    "432000";
    object      Cw6;
}
// * * * * * * * * * * * * * * * * * * * * * * * * * * * * * * * * * * * * * //

dimensions      [0 -3 0 0 1 0 0];

internalField   nonuniform List<scalar> 
184
(
0.000299133
0.000299133
0.000299116
0.000298922
0.000298953
0.000298999
0.000299019
0.000299025
0.000299029
0.000299038
0.000299048
0.000299059
0.000299073
0.000299089
0.000299088
0.000299111
0.000299103
0.000299125
0.000299114
0.000299135
0.000299121
0.000299142
0.000299125
0.000299146
0.000299127
0.000299154
0.000299212
0.000299884
0.000299187
0.000299151
0.000299128
0.000299137
0.000299148
0.000299127
0.000299146
0.000299126
0.000299144
0.000299125
0.000299142
0.000299125
0.000299141
0.000299125
0.00029914
0.000299125
0.00029914
0.000299126
0.000299139
0.000299126
0.000299139
0.000299127
0.000299139
0.000299127
0.000299139
0.000299128
0.000299139
0.000299128
0.000299138
0.000299128
0.000299138
0.000299129
0.000299138
0.000299129
0.000299138
0.000299129
0.000299137
0.000299129
0.000299137
0.000299129
0.000299137
0.000299129
0.000299137
0.00029913
0.000299137
0.00029913
0.000299137
0.00029913
0.000299136
0.00029913
0.000299136
0.00029913
0.000299136
0.00029913
0.000299136
0.00029913
0.000299136
0.000299131
0.000299136
0.000299131
0.000299136
0.000299131
0.000299133
0.000299136
0.000299131
0.000299135
0.000299131
0.000299135
0.000299131
0.000299135
0.000299131
0.000299135
0.000299131
0.000299135
0.000299131
0.000299133
0.000299133
0.000299133
0.000299133
0.000299133
0.000299133
0.000299133
0.000299132
0.000299133
0.00029915
0.000299117
0.000299134
0.000299134
0.000299134
0.000299134
0.000299133
0.000299133
0.000299133
0.000299133
0.000299133
0.000299133
0.000299133
0.000299133
0.000299133
0.000299133
0.000299133
0.000299133
0.000299132
0.000299132
0.000299146
0.000299121
0.000299134
0.000299134
0.000299134
0.000299133
0.000299133
0.000299133
0.000299133
0.000299133
0.000299133
0.000299133
0.000299133
0.000299153
0.000299298
0.000296696
0.000308321
0.000340553
0.000330543
0.000322495
0.000316511
0.000311531
0.000306909
0.000302398
0.000297972
0.000293692
0.000289631
0.000285835
0.000282324
0.000279092
0.000276118
0.000273378
0.000270853
0.000268526
0.000266389
0.000264438
0.000262669
0.000261081
0.000259668
0.000258423
0.000257336
0.000256394
0.000255587
0.000254917
0.000254407
0.000254122
0.000254095
0.000254746
0.00025705
0.000263061
0.000276758
0.000299133
)
;

boundaryField
{
    bc0
    {
        type            zeroGradient;
    }
    bc1
    {
        type            zeroGradient;
    }
    bc2
    {
        type            zeroGradient;
    }
    bc3
    {
        type            zeroGradient;
    }
    top
    {
        type            zeroGradient;
    }
    bottom
    {
        type            zeroGradient;
    }
}


// ************************************************************************* //
