/*--------------------------------*- C++ -*----------------------------------*\
  =========                 |
  \\      /  F ield         | OpenFOAM: The Open Source CFD Toolbox
   \\    /   O peration     | Website:  https://openfoam.org
    \\  /    A nd           | Version:  6
     \\/     M anipulation  |
\*---------------------------------------------------------------------------*/
FoamFile
{
    version     2.0;
    format      ascii;
    class       volScalarField;
    location    "432000";
    object      Cw7;
}
// * * * * * * * * * * * * * * * * * * * * * * * * * * * * * * * * * * * * * //

dimensions      [0 -3 0 0 1 0 0];

internalField   nonuniform List<scalar> 
184
(
0.000199422
0.000199422
0.000199411
0.000199282
0.000199302
0.000199333
0.000199346
0.00019935
0.000199353
0.000199358
0.000199366
0.000199373
0.000199382
0.000199393
0.000199392
0.000199407
0.000199402
0.000199417
0.000199409
0.000199424
0.000199414
0.000199428
0.000199417
0.000199431
0.000199418
0.000199436
0.000199474
0.000199922
0.000199458
0.000199434
0.000199418
0.000199425
0.000199432
0.000199418
0.00019943
0.000199417
0.000199429
0.000199417
0.000199428
0.000199417
0.000199427
0.000199417
0.000199427
0.000199417
0.000199426
0.000199417
0.000199426
0.000199418
0.000199426
0.000199418
0.000199426
0.000199418
0.000199426
0.000199418
0.000199426
0.000199419
0.000199426
0.000199419
0.000199425
0.000199419
0.000199425
0.000199419
0.000199425
0.000199419
0.000199425
0.000199419
0.000199425
0.00019942
0.000199425
0.00019942
0.000199425
0.00019942
0.000199424
0.00019942
0.000199424
0.00019942
0.000199424
0.00019942
0.000199424
0.00019942
0.000199424
0.00019942
0.000199424
0.00019942
0.000199424
0.00019942
0.000199424
0.00019942
0.000199424
0.00019942
0.000199422
0.000199424
0.000199421
0.000199424
0.000199421
0.000199424
0.000199421
0.000199424
0.000199421
0.000199424
0.000199421
0.000199424
0.000199421
0.000199422
0.000199422
0.000199422
0.000199422
0.000199422
0.000199422
0.000199422
0.000199422
0.000199422
0.000199434
0.000199411
0.000199422
0.000199423
0.000199423
0.000199422
0.000199422
0.000199422
0.000199422
0.000199422
0.000199422
0.000199422
0.000199422
0.000199422
0.000199422
0.000199422
0.000199422
0.000199422
0.000199422
0.000199422
0.000199431
0.000199414
0.000199423
0.000199423
0.000199422
0.000199422
0.000199422
0.000199422
0.000199422
0.000199422
0.000199422
0.000199422
0.000199422
0.000199435
0.000199532
0.000197798
0.000205547
0.000227035
0.000220362
0.000214997
0.000211007
0.000207688
0.000204606
0.000201599
0.000198648
0.000195795
0.000193087
0.000190557
0.000188216
0.000186061
0.000184079
0.000182252
0.000180569
0.000179017
0.000177593
0.000176292
0.000175113
0.000174054
0.000173112
0.000172282
0.000171557
0.000170929
0.000170392
0.000169945
0.000169605
0.000169414
0.000169397
0.000169831
0.000171367
0.000175374
0.000184505
0.000199422
)
;

boundaryField
{
    bc0
    {
        type            zeroGradient;
    }
    bc1
    {
        type            zeroGradient;
    }
    bc2
    {
        type            zeroGradient;
    }
    bc3
    {
        type            zeroGradient;
    }
    top
    {
        type            zeroGradient;
    }
    bottom
    {
        type            zeroGradient;
    }
}


// ************************************************************************* //
