/*--------------------------------*- C++ -*----------------------------------*\
  =========                 |
  \\      /  F ield         | OpenFOAM: The Open Source CFD Toolbox
   \\    /   O peration     | Website:  https://openfoam.org
    \\  /    A nd           | Version:  6
     \\/     M anipulation  |
\*---------------------------------------------------------------------------*/
FoamFile
{
    version     2.0;
    format      ascii;
    class       volScalarField;
    location    "432000";
    object      Cw8;
}
// * * * * * * * * * * * * * * * * * * * * * * * * * * * * * * * * * * * * * //

dimensions      [0 -3 0 0 1 0 0];

internalField   nonuniform List<scalar> 
184
(
0.00087567
0.00087567
0.000875663
0.000875751
0.000879081
0.000909884
0.000970818
0.00101436
0.00103073
0.00103037
0.00102246
0.00101166
0.00100029
0.000988498
0.000976469
0.000964417
0.000952519
0.000940903
0.000929649
0.000918803
0.00090839
0.000898415
0.000888875
0.000879758
0.00087105
0.000862728
0.000854615
0.000845573
0.000853586
0.000859896
0.000865797
0.000871411
0.000876751
0.000881829
0.000886658
0.000891245
0.000895602
0.000899736
0.000903655
0.000907368
0.000910883
0.000914207
0.000917349
0.000920314
0.000923112
0.000925749
0.000928231
0.000930567
0.000932762
0.000934822
0.000936754
0.000938565
0.000940258
0.000941839
0.000943311
0.000944687
0.000946009
0.000947209
0.000948314
0.000949342
0.000950276
0.000951111
0.000951842
0.000952417
0.000952691
0.00095235
0.000951343
0.000950063
0.000948668
0.000947225
0.000945763
0.000944295
0.000942828
0.000941365
0.000939908
0.000938458
0.000937016
0.000935584
0.000934163
0.000932753
0.000931356
0.000929971
0.000928601
0.000927246
0.000925907
0.000924583
0.000923277
0.000921988
0.000920717
0.000919464
0.00091823
0.000917016
0.000915822
0.000914647
0.000913493
0.00091236
0.000911248
0.000910157
0.000909087
0.000908039
0.000907012
0.000906007
0.000905024
0.000904063
0.000903123
0.000902206
0.00090131
0.000900436
0.000899584
0.000898753
0.000897944
0.000897156
0.00089639
0.000895644
0.00089492
0.000894216
0.000893533
0.00089287
0.000892228
0.000891605
0.000891002
0.000890419
0.000889855
0.00088931
0.000888783
0.000888276
0.000887786
0.000887315
0.000886862
0.000886426
0.000886008
0.000885607
0.000885223
0.000884856
0.000884506
0.000884172
0.000883855
0.000883553
0.000883269
0.000883001
0.00088275
0.000882519
0.000882312
0.000882139
0.000882021
0.000882003
0.00088218
0.000882748
0.000883593
0.000883794
0.000883484
0.000882875
0.000882142
0.000881399
0.000880697
0.000880054
0.000879471
0.000878947
0.000878479
0.000878065
0.000877701
0.000877383
0.000877108
0.000876873
0.000876673
0.000876504
0.000876361
0.000876241
0.000876139
0.000876049
0.000875969
0.000875894
0.000875821
0.000875749
0.000875675
0.000875598
0.00087552
0.00087544
0.000875359
0.000875282
0.000875214
0.000875178
0.000875244
0.00087567
)
;

boundaryField
{
    bc0
    {
        type            zeroGradient;
    }
    bc1
    {
        type            zeroGradient;
    }
    bc2
    {
        type            zeroGradient;
    }
    bc3
    {
        type            zeroGradient;
    }
    top
    {
        type            zeroGradient;
    }
    bottom
    {
        type            zeroGradient;
    }
}


// ************************************************************************* //
