/*--------------------------------*- C++ -*----------------------------------*\
  =========                 |
  \\      /  F ield         | OpenFOAM: The Open Source CFD Toolbox
   \\    /   O peration     | Website:  https://openfoam.org
    \\  /    A nd           | Version:  6
     \\/     M anipulation  |
\*---------------------------------------------------------------------------*/
FoamFile
{
    version     2.0;
    format      ascii;
    class       volScalarField;
    location    "432000";
    object      hp;
}
// * * * * * * * * * * * * * * * * * * * * * * * * * * * * * * * * * * * * * //

dimensions      [0 1 0 0 0 0 0];

internalField   nonuniform List<scalar> 
184
(
0.02
0.0100007
1.30826e-06
-0.00999788
-0.0199969
-0.0299955
-0.0399938
-0.0499916
-0.0599886
-0.0699846
-0.0799794
-0.0899726
-0.0999637
-0.109952
-0.119937
-0.129919
-0.139895
-0.149866
-0.159831
-0.169787
-0.179736
-0.189674
-0.199602
-0.209519
-0.219423
-0.229316
-0.239196
-0.249064
-0.258921
-0.268769
-0.278609
-0.288443
-0.298275
-0.308108
-0.317945
-0.32779
-0.337646
-0.347516
-0.357402
-0.367307
-0.377231
-0.387175
-0.397139
-0.407121
-0.41712
-0.427131
-0.437154
-0.447187
-0.457227
-0.467273
-0.477323
-0.487375
-0.49743
-0.507485
-0.517541
-0.527596
-0.537652
-0.547707
-0.557761
-0.567816
-0.577869
-0.587923
-0.597976
-0.608029
-0.618082
-0.628134
-0.638187
-0.648239
-0.658291
-0.668343
-0.678394
-0.688446
-0.698498
-0.708549
-0.7186
-0.728651
-0.738703
-0.748754
-0.758805
-0.768856
-0.778906
-0.788957
-0.799008
-0.809058
-0.819108
-0.829158
-0.839206
-0.849254
-0.8593
-0.869345
-0.879389
-0.889433
-0.899477
-0.909523
-0.919569
-0.929617
-0.939666
-0.949716
-0.959764
-0.969812
-0.979857
-0.989898
-0.999932
-1.00996
-1.01998
-1.02999
-1.04
-1.05001
-1.06002
-1.07006
-1.08013
-1.09024
-1.1004
-1.11058
-1.12074
-1.13086
-1.14094
-1.15098
-1.16099
-1.171
-1.181
-1.191
-1.201
-1.211
-1.221
-1.231
-1.241
-1.251
-1.26101
-1.27103
-1.28108
-1.29119
-1.30138
-1.3116
-1.3218
-1.33192
-1.34197
-1.35199
-1.362
-1.372
-1.382
-1.392
-1.402
-1.412
-1.422
-1.43198
-1.43968
-1.28388
-0.681824
-0.421035
-0.310385
-0.253047
-0.218986
-0.196912
-0.181783
-0.17104
-0.163248
-0.15754
-0.153366
-0.150354
-0.14825
-0.146871
-0.146084
-0.145791
-0.145918
-0.146412
-0.14723
-0.148344
-0.149732
-0.151382
-0.153287
-0.155445
-0.157862
-0.160549
-0.163522
-0.166808
-0.170437
-0.174454
-0.178914
-0.183891
-0.189482
-0.195818
-0.20308
-0.211521
)
;

boundaryField
{
    bc0
    {
        type            fixedGradient;
        gradient        uniform -1;
    }
    bc1
    {
        type            zeroGradient;
    }
    bc2
    {
        type            zeroGradient;
    }
    bc3
    {
        type            zeroGradient;
    }
    top
    {
        type            zeroGradient;
    }
    bottom
    {
        type            zeroGradient;
    }
}


// ************************************************************************* //
