/*--------------------------------*- C++ -*----------------------------------*\
  =========                 |
  \\      /  F ield         | OpenFOAM: The Open Source CFD Toolbox
   \\    /   O peration     | Website:  https://openfoam.org
    \\  /    A nd           | Version:  6
     \\/     M anipulation  |
\*---------------------------------------------------------------------------*/
FoamFile
{
    version     2.0;
    format      ascii;
    class       surfaceScalarField;
    location    "432000";
    object      phiw;
}
// * * * * * * * * * * * * * * * * * * * * * * * * * * * * * * * * * * * * * //

dimensions      [0 3 -1 0 0 0 0];

internalField   nonuniform List<scalar> 
183
(
-5.78818e-07
-1.60417e-10
-1.54227e-10
-1.5442e-10
-1.54502e-10
-1.54457e-10
-1.54275e-10
-1.53951e-10
-1.53484e-10
-1.52869e-10
-1.52095e-10
-1.51147e-10
-1.50003e-10
-1.48637e-10
-1.47017e-10
-1.45108e-10
-1.42875e-10
-1.40281e-10
-1.37288e-10
-1.33863e-10
-1.29976e-10
-1.25606e-10
-1.20736e-10
-1.15364e-10
-1.09498e-10
-1.03162e-10
-9.63962e-11
-8.92563e-11
-8.18155e-11
-7.41625e-11
-6.63997e-11
-5.86402e-11
-5.10034e-11
-4.36099e-11
-3.6576e-11
-3.00079e-11
-2.39957e-11
-1.86091e-11
-1.38931e-11
-9.86682e-12
-6.52315e-12
-3.8308e-12
-1.7369e-12
-1.95965e-13
9.57449e-13
1.73427e-12
2.22331e-12
2.48943e-12
2.58955e-12
2.5728e-12
2.4794e-12
2.3406e-12
2.17933e-12
2.01137e-12
1.84682e-12
1.69146e-12
1.54811e-12
1.41763e-12
1.29974e-12
1.1936e-12
1.0981e-12
1.01208e-12
9.34463e-13
8.64276e-13
8.00658e-13
7.42861e-13
6.90238e-13
6.42225e-13
5.98334e-13
5.58137e-13
5.2126e-13
4.87374e-13
4.56189e-13
4.27446e-13
4.00917e-13
3.76398e-13
3.53703e-13
3.32663e-13
3.13116e-13
2.949e-13
2.77837e-13
2.61721e-13
2.46302e-13
2.31292e-13
2.16412e-13
2.01489e-13
1.86604e-13
1.7221e-13
1.59115e-13
1.48229e-13
1.40131e-13
1.34722e-13
1.31198e-13
1.28423e-13
1.25396e-13
1.21517e-13
1.1652e-13
1.10206e-13
1.02216e-13
9.20227e-14
7.92365e-14
6.41147e-14
4.79394e-14
3.28607e-14
2.12367e-14
1.51253e-14
1.65648e-14
2.83405e-14
5.38218e-14
9.42062e-14
1.43399e-13
1.85163e-13
1.99599e-13
1.77968e-13
1.31054e-13
8.01245e-14
4.10611e-14
1.78401e-14
6.64871e-15
2.14917e-15
6.08876e-16
1.5365e-16
4.0423e-17
3.72644e-17
1.34117e-16
5.27314e-16
1.87523e-15
5.8853e-15
1.59694e-14
3.65418e-14
6.84118e-14
1.01223e-13
1.14532e-13
9.74607e-14
6.2768e-14
3.13156e-14
1.24453e-14
4.04403e-15
1.09885e-15
2.54382e-16
5.09524e-17
8.806e-18
-1.46478e-17
-1.84913e-15
-2.10866e-13
-1.49809e-11
-1.30248e-10
-3.70291e-09
-2.45154e-08
-4.16927e-08
-5.04245e-08
-5.64076e-08
-6.05502e-08
-6.32347e-08
-6.47513e-08
-6.53381e-08
-6.51869e-08
-6.44505e-08
-6.32497e-08
-6.16798e-08
-5.98161e-08
-5.77187e-08
-5.54355e-08
-5.30053e-08
-5.04595e-08
-4.78235e-08
-4.51188e-08
-4.23628e-08
-3.95705e-08
-3.67546e-08
-3.39261e-08
-3.10946e-08
-2.8269e-08
-2.54572e-08
-2.26669e-08
-1.99053e-08
-1.71799e-08
-1.44981e-08
-1.18678e-08
-9.2977e-09
-6.79715e-09
-4.37689e-09
-2.04908e-09
)
;

boundaryField
{
    bc0
    {
        type            calculated;
        value           uniform -1.65436e-24;
    }
    bc1
    {
        type            calculated;
        value           uniform 0;
    }
    bc2
    {
        type            calculated;
        value           uniform 2.31482e-06;
    }
    bc3
    {
        type            calculated;
        value           uniform 0;
    }
    top
    {
        type            calculated;
        value           uniform 0;
    }
    bottom
    {
        type            calculated;
        value           uniform 0;
    }
}


// ************************************************************************* //
