/*--------------------------------*- C++ -*----------------------------------*\
  =========                 |
  \\      /  F ield         | OpenFOAM: The Open Source CFD Toolbox
   \\    /   O peration     | Website:  https://openfoam.org
    \\  /    A nd           | Version:  6
     \\/     M anipulation  |
\*---------------------------------------------------------------------------*/
FoamFile
{
    version     2.0;
    format      ascii;
    class       volScalarField;
    location    "432000";
    object      sw;
}
// * * * * * * * * * * * * * * * * * * * * * * * * * * * * * * * * * * * * * //

dimensions      [0 0 0 0 0 0 0];

internalField   nonuniform List<scalar> 
184
(
0.999
0.999
0.999
0.995036
0.983489
0.965313
0.941869
0.914671
0.885171
0.854614
0.823977
0.793973
0.765081
0.737594
0.711665
0.68735
0.664639
0.643479
0.623792
0.605486
0.588465
0.572632
0.557893
0.54416
0.531348
0.519381
0.508188
0.497702
0.487865
0.478621
0.469922
0.461722
0.45398
0.446658
0.439724
0.433145
0.426896
0.420952
0.41529
0.40989
0.404735
0.399809
0.395099
0.390591
0.386274
0.382137
0.378171
0.374366
0.370714
0.367206
0.363835
0.360594
0.357475
0.354473
0.35158
0.348792
0.346104
0.343509
0.341003
0.338582
0.336242
0.333978
0.331787
0.329666
0.327611
0.32562
0.323689
0.321816
0.319998
0.318233
0.316519
0.314853
0.313234
0.311659
0.310127
0.308636
0.307185
0.305772
0.304395
0.303053
0.301745
0.300469
0.299225
0.298011
0.296826
0.29567
0.29454
0.293437
0.292359
0.291306
0.290277
0.28927
0.288285
0.287322
0.286379
0.285456
0.284553
0.283668
0.282801
0.281953
0.281121
0.280307
0.279509
0.278727
0.277961
0.277211
0.276474
0.275752
0.275042
0.274345
0.273658
0.27298
0.272312
0.271655
0.27101
0.270379
0.269763
0.269159
0.268567
0.267985
0.267413
0.266851
0.266298
0.265755
0.26522
0.264693
0.264176
0.263666
0.263164
0.262669
0.26218
0.261696
0.261216
0.260741
0.260276
0.25982
0.259375
0.258937
0.258506
0.258082
0.257664
0.257252
0.256846
0.256445
0.25605
0.255661
0.255365
0.262045
0.315945
0.384634
0.44502
0.493654
0.531896
0.561786
0.58511
0.603274
0.61736
0.628192
0.636403
0.642481
0.646807
0.649678
0.651329
0.651947
0.651678
0.650641
0.648928
0.646613
0.643753
0.640392
0.636561
0.632283
0.62757
0.622427
0.61685
0.610826
0.604336
0.59735
0.589825
0.581708
0.572927
0.563389
0.552969
0.541499
)
;

boundaryField
{
    bc0
    {
        type            zeroGradient;
    }
    bc1
    {
        type            zeroGradient;
    }
    bc2
    {
        type            zeroGradient;
    }
    bc3
    {
        type            zeroGradient;
    }
    top
    {
        type            zeroGradient;
    }
    bottom
    {
        type            zeroGradient;
    }
}


// ************************************************************************* //
