/*--------------------------------*- C++ -*----------------------------------*\
  =========                 |
  \\      /  F ield         | OpenFOAM: The Open Source CFD Toolbox
   \\    /   O peration     | Website:  https://openfoam.org
    \\  /    A nd           | Version:  6
     \\/     M anipulation  |
\*---------------------------------------------------------------------------*/
FoamFile
{
    version     2.0;
    format      ascii;
    class       volVectorField;
    location    "432000";
    object      Uw;
}
// * * * * * * * * * * * * * * * * * * * * * * * * * * * * * * * * * * * * * //

dimensions      [0 1 -1 0 0 0 0];

internalField   nonuniform List<vector> 
184
(
(0 -1.44682e-06 0)
(0 -2.89489e-07 0)
(0 -1.57322e-10 0)
(0 -1.54323e-10 0)
(0 -1.54461e-10 0)
(0 -1.5448e-10 0)
(0 -1.54366e-10 0)
(0 -1.54113e-10 0)
(0 -1.53718e-10 0)
(0 -1.53177e-10 0)
(0 -1.52482e-10 0)
(0 -1.51621e-10 0)
(0 -1.50575e-10 0)
(0 -1.4932e-10 0)
(0 -1.47827e-10 0)
(0 -1.46063e-10 0)
(0 -1.43992e-10 0)
(0 -1.41578e-10 0)
(0 -1.38784e-10 0)
(0 -1.35575e-10 0)
(0 -1.3192e-10 0)
(0 -1.27791e-10 0)
(0 -1.23171e-10 0)
(0 -1.1805e-10 0)
(0 -1.12431e-10 0)
(0 -1.0633e-10 0)
(0 -9.97792e-11 0)
(0 -9.28262e-11 0)
(0 -8.55359e-11 0)
(0 -7.7989e-11 0)
(0 -7.02811e-11 0)
(0 -6.252e-11 0)
(0 -5.48218e-11 0)
(0 -4.73066e-11 0)
(0 -4.00929e-11 0)
(0 -3.3292e-11 0)
(0 -2.70018e-11 0)
(0 -2.13024e-11 0)
(0 -1.62511e-11 0)
(0 -1.188e-11 0)
(0 -8.19498e-12 0)
(0 -5.17697e-12 0)
(0 -2.78385e-12 0)
(0 -9.66433e-13 0)
(0 3.80742e-13 0)
(0 1.34586e-12 0)
(0 1.97879e-12 0)
(0 2.35637e-12 0)
(0 2.53949e-12 0)
(0 2.58117e-12 0)
(0 2.5261e-12 0)
(0 2.41e-12 0)
(0 2.25996e-12 0)
(0 2.09535e-12 0)
(0 1.9291e-12 0)
(0 1.76914e-12 0)
(0 1.61979e-12 0)
(0 1.48287e-12 0)
(0 1.35869e-12 0)
(0 1.24667e-12 0)
(0 1.14585e-12 0)
(0 1.05509e-12 0)
(0 9.7327e-13 0)
(0 8.99369e-13 0)
(0 8.32467e-13 0)
(0 7.71759e-13 0)
(0 7.16549e-13 0)
(0 6.66231e-13 0)
(0 6.20279e-13 0)
(0 5.78235e-13 0)
(0 5.39698e-13 0)
(0 5.04317e-13 0)
(0 4.71781e-13 0)
(0 4.41817e-13 0)
(0 4.14181e-13 0)
(0 3.88657e-13 0)
(0 3.6505e-13 0)
(0 3.43183e-13 0)
(0 3.22889e-13 0)
(0 3.04008e-13 0)
(0 2.86369e-13 0)
(0 2.69779e-13 0)
(0 2.54012e-13 0)
(0 2.38797e-13 0)
(0 2.23852e-13 0)
(0 2.08951e-13 0)
(0 1.94046e-13 0)
(0 1.79407e-13 0)
(0 1.65662e-13 0)
(0 1.53672e-13 0)
(0 1.4418e-13 0)
(0 1.37426e-13 0)
(0 1.3296e-13 0)
(0 1.29811e-13 0)
(0 1.2691e-13 0)
(0 1.23457e-13 0)
(0 1.19018e-13 0)
(0 1.13363e-13 0)
(0 1.06211e-13 0)
(0 9.71193e-14 0)
(0 8.56296e-14 0)
(0 7.16756e-14 0)
(0 5.60271e-14 0)
(0 4.04001e-14 0)
(0 2.70487e-14 0)
(0 1.8181e-14 0)
(0 1.58451e-14 0)
(0 2.24527e-14 0)
(0 4.10812e-14 0)
(0 7.4014e-14 0)
(0 1.18802e-13 0)
(0 1.64281e-13 0)
(0 1.92381e-13 0)
(0 1.88783e-13 0)
(0 1.54511e-13 0)
(0 1.05589e-13 0)
(0 6.05928e-14 0)
(0 2.94506e-14 0)
(0 1.22444e-14 0)
(0 4.39894e-15 0)
(0 1.37902e-15 0)
(0 3.81263e-16 0)
(0 9.70367e-17 0)
(0 3.88437e-17 0)
(0 8.56908e-17 0)
(0 3.30716e-16 0)
(0 1.20127e-15 0)
(0 3.88027e-15 0)
(0 1.09274e-14 0)
(0 2.62556e-14 0)
(0 5.24768e-14 0)
(0 8.48173e-14 0)
(0 1.07878e-13 0)
(0 1.05997e-13 0)
(0 8.01144e-14 0)
(0 4.70418e-14 0)
(0 2.18804e-14 0)
(0 8.24465e-15 0)
(0 2.57144e-15 0)
(0 6.76614e-16 0)
(0 1.52667e-16 0)
(0 2.98792e-17 0)
(0 -2.92092e-18 0)
(0 -9.31889e-16 0)
(0 -1.06357e-13 0)
(0 -7.59587e-12 0)
(0 -7.26147e-11 0)
(0 -1.91658e-09 0)
(0 -1.41092e-08 0)
(0 -3.3104e-08 0)
(0 -4.60586e-08 0)
(0 -5.3416e-08 0)
(0 -5.84789e-08 0)
(0 -6.18924e-08 0)
(0 -6.3993e-08 0)
(0 -6.50447e-08 0)
(0 -6.52625e-08 0)
(0 -6.48187e-08 0)
(0 -6.38501e-08 0)
(0 -6.24647e-08 0)
(0 -6.07479e-08 0)
(0 -5.87674e-08 0)
(0 -5.65771e-08 0)
(0 -5.42204e-08 0)
(0 -5.17324e-08 0)
(0 -4.91415e-08 0)
(0 -4.64711e-08 0)
(0 -4.37408e-08 0)
(0 -4.09666e-08 0)
(0 -3.81625e-08 0)
(0 -3.53403e-08 0)
(0 -3.25103e-08 0)
(0 -2.96818e-08 0)
(0 -2.68631e-08 0)
(0 -2.40621e-08 0)
(0 -2.12861e-08 0)
(0 -1.85426e-08 0)
(0 -1.5839e-08 0)
(0 -1.3183e-08 0)
(0 -1.05828e-08 0)
(0 -8.04742e-09 0)
(0 -5.58702e-09 0)
(0 -3.21298e-09 0)
(0 -1.02454e-09 0)
)
;

boundaryField
{
    bc0
    {
        type            zeroGradient;
    }
    bc1
    {
        type            zeroGradient;
    }
    bc2
    {
        type            zeroGradient;
    }
    bc3
    {
        type            zeroGradient;
    }
    top
    {
        type            zeroGradient;
    }
    bottom
    {
        type            zeroGradient;
    }
}


// ************************************************************************* //
