/*--------------------------------*- C++ -*----------------------------------*\
  =========                 |
  \\      /  F ield         | OpenFOAM: The Open Source CFD Toolbox
   \\    /   O peration     | Website:  https://openfoam.org
    \\  /    A nd           | Version:  6
     \\/     M anipulation  |
\*---------------------------------------------------------------------------*/
FoamFile
{
    version     2.0;
    format      ascii;
    class       volScalarField;
    location    "21600000";
    object      Cw;
}
// * * * * * * * * * * * * * * * * * * * * * * * * * * * * * * * * * * * * * //

dimensions      [1 -3 0 0 0 0 0];

internalField   nonuniform List<scalar> 
11830
(
2.78806e-78
2.03552e-15
0
4.46778e-13
3.06645e-76
3.66722e-75
1.21068e-74
5.31171e-74
0
0
2.84194e-69
1.95894e-67
4.48297e-66
8.22867e-65
1.38677e-63
1.44449e-62
1.61163e-61
1.21315e-60
5.6083e-60
3.53536e-59
8.13802e-59
3.41093e-58
3.34805e-58
4.8965e-57
0
0
9.85647e-55
2.61434e-50
1.21628e-48
3.23563e-47
2.99737e-46
1.64941e-45
2.39607e-45
7.12392e-45
7.97755e-46
0
1.46298e-43
4.91091e-40
6.76479e-39
2.00413e-38
5.59833e-38
4.01193e-38
6.4858e-40
0
2.64666e-35
4.97876e-34
2.69744e-33
1.31032e-32
1.90305e-32
1.56706e-32
1.22525e-32
0
0
2.15353e-31
1.18873e-29
5.16629e-29
1.63104e-28
2.54581e-28
2.39726e-28
1.98228e-28
8.4232e-29
1.32952e-31
0
2.31278e-27
6.12528e-26
2.47903e-25
5.10267e-25
6.1956e-25
5.87649e-25
3.96543e-25
1.4997e-25
8.77477e-27
0
1.20487e-24
9.61605e-24
2.28792e-23
5.25144e-23
6.83099e-23
1.75732e-22
1.60775e-22
1.05134e-22
1.41893e-22
2.42769e-22
1.02143e-22
0
0
0
8.45217e-20
0
9.76934e-16
9.16344e-15
2.62513e-14
3.916e-14
4.79229e-14
5.07138e-14
7.31741e-14
4.81168e-14
5.31158e-14
2.74588e-14
1.97762e-14
1.05921e-14
6.15312e-15
5.344e-15
5.54897e-15
5.89621e-15
1.30705e-14
2.00828e-14
3.08381e-14
4.36912e-14
5.47067e-14
6.14762e-14
6.14573e-14
5.52726e-14
4.41451e-14
2.98175e-14
1.54896e-14
4.8178e-15
2.26703e-16
2.96382e-19
0
0
0
3.03624e-28
0
0
2.53038e-28
7.05453e-29
4.43406e-28
1.54149e-27
1.82937e-27
2.33179e-27
2.35075e-27
1.61538e-27
8.50646e-28
2.93167e-28
3.80024e-29
0
0
0
0
0
1.5208e-42
1.35119e-40
1.32324e-39
3.59547e-39
6.44608e-39
8.22642e-39
7.99428e-39
5.14002e-39
2.09818e-39
3.84765e-40
6.40319e-42
6.71195e-45
0
0
0
5.96325e-53
1.72936e-49
3.76956e-49
5.34145e-49
5.59204e-49
4.27462e-49
2.20939e-49
6.6591e-50
9.40487e-51
2.14764e-52
4.01711e-54
0
0
0
0
0
5.55316e-64
2.33966e-63
3.73721e-63
3.47747e-63
2.39394e-63
1.18979e-63
4.45081e-64
9.87698e-65
8.23923e-66
4.69815e-68
0
0
0
0
0
0
3.32973e-76
5.40646e-76
2.90277e-76
2.00962e-77
0
6.02664e-82
0
1.84556e-81
2.23049e-81
9.76759e-82
1.61885e-82
9.09637e-84
7.75326e-86
3.88864e-87
5.15065e-91
0
9.63462e-85
1.17069e-83
2.003e-83
3.02224e-83
0
0
1.62661e-80
0
1.61966e-76
3.42618e-75
1.93828e-74
2.61326e-74
6.97398e-74
4.31614e-72
3.6119e-71
1.46813e-68
0
9.15048e-66
3.39334e-65
1.69485e-64
5.6185e-64
1.54311e-64
0
2.52712e-60
0
0
0
1.38828e-54
8.49458e-54
3.03369e-53
6.68403e-53
4.80289e-54
0
4.42994e-50
0
0
7.48448e-45
2.25546e-44
1.28226e-43
8.26966e-43
3.29405e-42
2.14273e-41
9.91818e-41
4.30013e-40
2.92351e-40
0
1.86049e-37
0
1.24739e-33
6.98579e-33
3.57237e-32
1.04798e-31
2.41746e-31
6.68236e-31
2.06054e-31
0
0
0
8.49665e-28
1.62753e-26
1.66425e-25
1.54916e-25
1.59742e-24
1.04553e-24
2.32792e-24
2.25406e-24
0
0
3.97699e-22
0
0
2.34271e-17
6.42529e-16
9.15853e-16
2.26045e-14
9.61323e-15
9.15415e-14
5.23435e-14
3.01963e-14
4.27019e-13
1.53606e-13
1.68862e-12
1.00084e-12
1.56493e-12
1.66098e-12
2.90855e-12
2.96365e-12
2.87278e-12
2.7315e-12
2.57664e-12
2.38006e-12
2.11934e-12
1.84494e-12
1.40325e-12
9.42438e-13
7.16725e-13
1.95364e-13
2.97401e-13
1.43134e-12
2.95101e-13
9.30117e-13
5.88595e-13
1.35061e-12
8.81055e-13
8.55645e-13
7.44879e-13
5.97145e-13
4.36467e-13
2.83834e-13
1.51322e-13
6.42269e-14
2.59703e-14
1.02664e-14
3.78388e-15
1.16794e-15
2.08836e-16
0
0
0
0
0
1.94087e-23
1.83102e-24
3.70895e-26
1.95835e-28
1.23326e-28
7.23626e-29
4.09845e-29
2.69083e-29
1.43376e-29
6.17792e-30
2.49074e-30
8.75665e-31
2.11389e-31
0
0
2.29396e-33
3.20174e-33
2.64289e-33
1.77606e-33
8.63859e-34
3.38254e-34
1.02037e-34
1.18898e-35
0
0
2.26601e-40
3.29002e-39
3.14866e-39
1.72776e-39
7.46429e-40
2.70515e-40
6.15388e-41
3.12157e-43
0
0
2.5878e-46
2.74546e-45
1.70617e-45
7.83528e-46
3.00415e-46
7.78099e-47
2.37522e-48
0
0
0
5.00397e-52
5.02021e-52
2.49237e-52
9.54165e-53
2.59207e-53
1.26407e-54
0
0
0
0
3.45571e-62
2.46217e-62
7.13898e-64
6.41734e-68
8.12716e-68
2.34883e-69
1.60403e-70
3.14349e-72
7.52783e-72
1.03042e-71
3.14127e-72
5.31286e-75
0
0
1.29682e-77
1.67145e-76
7.22398e-77
5.01998e-77
5.97121e-77
3.54746e-77
0
3.92334e-29
0
1.52079e-33
1.14279e-33
4.62465e-39
0
2.31694e-42
1.74729e-26
0
7.1168e-49
0
1.34952e-28
0
8.63141e-40
1.23638e-29
0
3.57701e-25
0
0
0
4.18036e-27
0
4.36455e-46
5.20323e-22
2.1086e-63
1.29906e-52
1.36434e-15
1.44335e-64
2.3856e-27
1.84977e-17
2.35599e-55
0
6.28386e-14
0
0
0
7.0635e-71
2.84092e-14
1.3078e-59
7.05177e-13
0
2.26426e-69
6.57397e-15
2.66568e-75
2.53505e-13
2.85542e-13
2.16736e-63
1.1981e-39
5.4114e-28
2.29181e-31
1.73692e-51
3.50318e-32
6.86192e-34
3.93064e-71
2.96782e-13
1.17416e-45
1.04161e-12
1.48868e-76
6.06663e-25
0
1.86326e-24
2.91804e-38
7.37539e-31
1.9753e-38
2.89811e-41
0
0
2.46838e-81
2.23014e-13
7.11578e-13
0
0
1.95849e-13
3.40235e-13
0
1.56218e-53
7.01727e-27
4.97882e-28
0
2.45099e-29
3.59173e-45
4.20312e-22
6.29228e-63
1.99565e-64
1.15631e-22
0
3.08062e-14
0
2.72884e-52
0
0
2.83659e-82
2.9908e-13
6.59493e-14
1.98977e-76
2.02718e-83
5.91487e-14
2.05377e-13
0
1.45101e-13
1.72534e-74
1.58031e-39
3.02356e-28
7.34905e-29
3.14926e-40
0
9.60398e-40
0
0
0
1.17494e-31
0
7.70702e-49
9.47793e-73
3.11031e-75
3.24802e-13
0
1.49286e-13
1.6782e-61
4.64477e-53
3.01809e-27
9.1581e-13
1.05376e-12
0
3.2453e-13
5.72982e-66
3.4112e-13
0
1.70059e-72
2.95482e-13
1.24129e-13
0
0
3.69405e-46
7.80466e-25
1.52304e-45
0
9.33425e-26
8.2269e-25
1.16234e-24
1.41476e-49
0
5.94573e-24
2.86414e-15
2.29694e-60
0
1.67543e-32
1.03165e-33
3.53799e-38
4.66054e-41
4.47154e-30
0
0
0
1.96968e-38
0
8.44937e-30
0
0
0
0
3.74777e-43
0
0
8.12868e-14
2.09297e-14
3.07212e-76
1.75784e-39
0
0
1.42091e-35
1.09192e-33
4.06391e-33
9.75584e-33
2.7066e-32
3.92278e-32
9.40726e-32
1.00194e-31
2.09617e-31
8.93459e-32
1.48132e-31
4.0561e-31
2.23972e-31
0
0
0
0
2.50494e-27
8.859e-27
3.16311e-26
8.19953e-26
1.56459e-25
3.67399e-25
4.97066e-25
1.07748e-24
1.15571e-24
2.3004e-24
2.24692e-24
4.40794e-24
4.53684e-24
8.59675e-24
9.03303e-24
1.65226e-23
1.80137e-23
3.09581e-23
3.38715e-23
8.10658e-23
7.55414e-23
1.28506e-22
1.49381e-22
1.42194e-22
2.39895e-22
0
1.30817e-22
0
0
5.44566e-20
4.79569e-19
1.47729e-19
2.58753e-20
0
2.44557e-21
0
0
0
0
0
0
0
0
6.81821e-15
0
0
0
0
5.03667e-12
0
0
0
0
1.25272e-06
0
7.7845e-06
8.90606e-05
0.000180036
2.61499e-05
0.000346861
0.00106402
0.00184067
0.000641808
0.00309665
0.00673543
0.0106687
0.0193771
0.0293342
0.0165161
0.0434792
0.0678955
0.0970186
0.0631029
0.135855
0.0896818
0.186416
0.255689
0.339815
0.250637
0.442621
0.551183
0.696732
0.564975
0.863071
0.98753
1.18794
1.27253
1.04742
1.39981
1.24509
1.61547
1.44948
1.82551
1.65224
2.01955
1.8438
2.18607
2.01351
6.24462e-24
2.31469
2.15068
2.39441
2.43858
2.24488
1.88097
1.98271
1.53894
1.63881
2.4469
2.3951
1.17248
2.3683
2.18659
1.262
0.82778
2.10314
1.80449
0.90137
0.538292
1.6771
1.33139
0.59381
1.19091
0.870249
0.319782
0.358141
0.745778
0.497346
0.171557
0.195701
0.405518
0.243077
0.0817069
0.186402
0.09762
0.0954227
0.0336285
0.0689024
0.0296983
0.0405501
0.018388
0.00555908
0.011419
0.0144363
0.00256886
0.000208
0.000981212
0
0
0
0
0
0
0
6.89152e-11
2.38146e-13
0
0
0
0
0
0
0
0
1.03385e-18
2.66675e-19
0
5.85319e-19
3.91948e-19
8.16678e-19
0.00291282
7.00605e-19
0.00399006
0.0176586
0
8.70566e-19
8.13166e-19
0.00523083
0.0209286
0.000436634
7.63396e-19
5.64121e-19
0.00658331
0.0240589
0.00797717
0.0268527
4.66102e-19
2.61057e-19
0.00932978
0.02913
1.86025e-19
7.43287e-20
0.0105543
0.0307502
0.0115706
0.0316222
4.25016e-20
8.95981e-21
0.0030784
0.0123127
0.031678
0.0127312
0.0309265
2.75607e-21
0
1.26421e-22
0
0
0
0.0127946
0.0294072
0
0
0.0125029
0.0272461
0
0.0118842
0.0246026
0
0.0109929
0.021655
0
0.00452884
0.00989864
0.0185821
0
0
0.00867955
0.0155471
0.029573
0.0237279
0.040683
0.0313954
0.0489809
0.036437
0.0521765
0.0375697
0.0503005
0.0264878
0.0353001
0.0440253
0.000228167
0
0
0
0
6.99088e-11
4.55334e-11
2.1358e-16
0
0
4.46053e-17
4.06451e-19
0
2.79782e-17
2.85117e-17
3.74664e-17
2.90884e-17
1.9901e-17
1.36612e-17
5.77448e-18
4.01026e-18
2.72627e-17
1.35042e-18
9.60173e-19
2.8922e-19
1.61517e-19
2.62558e-20
2.4867e-21
0.0298206
0.034144
0
0
0
0
1.02034e-22
3.37351e-22
9.20452e-31
0.0222423
0.0233734
1.98839e-19
4.48621e-32
0
2.03846e-22
2.51009e-22
1.39231e-31
6.69348e-32
0.0146346
0.0143733
4.80442e-23
1.81653e-23
0
4.61288e-22
1.2021e-31
4.84169e-32
0
0
0.00862258
0.00764692
0.00894144
4.95833e-32
1.70081e-32
4.30162e-26
2.29058e-25
0
2.88059e-25
2.49037e-25
2.93603e-25
1.87644e-25
8.87489e-33
2.45546e-33
8.26501e-26
4.66546e-26
1.26345e-25
2.43936e-26
2.83879e-27
5.70238e-28
1.17222e-26
7.36237e-30
0
0
0
0
4.95326e-33
2.27308e-32
0
3.42938e-32
7.85654e-32
0.00502879
0.00532371
0
5.77736e-32
3.34816e-34
2.73508e-35
5.40741e-32
0.00285044
0.00308632
0
0
1.91074e-33
3.4532e-32
2.17448e-32
0
0
0.00156953
0.0017375
0
0
0
1.69284e-41
0
1.19094e-40
1.19132e-32
4.34984e-33
1.37983e-22
0.000838752
0.00095032
1.28324e-41
0
5.22549e-19
0
3.42023e-19
1.03877e-21
1.72625e-19
1.64975e-21
2.44874e-20
0
0
0
2.94433e-20
3.27226e-17
0
0
0
0
1.08299e-17
3.02284e-14
0
0
0
0
1.93608e-14
1.00087e-11
0
0
0
0
5.78702e-12
0
4.5347e-15
0
0
0
3.13303e-09
0
7.65261e-07
0
1.85511e-06
6.2851e-08
3.11337e-06
4.12581e-07
4.28926e-06
1.66405e-05
1.81747e-05
5.54193e-05
5.43158e-05
1.88754e-05
5.03172e-05
0.000125622
0.000108397
4.47355e-05
9.06863e-05
0.000202454
0.000161744
7.37391e-05
0.000126073
0
5.83858e-05
9.59858e-05
0.000195
0.000143522
7.14519e-05
0.000103462
0.00019688
0.000137877
0.000249204
0.00016994
9.47377e-05
0.000113809
0.000194501
0.000127239
7.48798e-05
8.18467e-05
4.84309e-05
5.18281e-05
3.08072e-05
3.23345e-05
0.0002079
1.92736e-05
1.99077e-05
1.1874e-05
1.20732e-05
1.94545e-05
1.15462e-05
7.2109e-06
6.74397e-06
1.02822e-05
4.23623e-06
3.87804e-06
0
2.45027e-06
2.19599e-06
1.94301e-33
1.47479e-34
6.4566e-34
0
1.39539e-06
6.019e-42
0
0.000434691
0.000335911
0.000505032
0
1.22488e-06
7.82642e-07
0
0
0.0463227
7.35287e-31
1.10841e-05
0.00016273
0.000105122
2.25282e-42
0
0.0130117
0.00618299
0
2.06397e-39
6.73141e-07
4.32448e-07
4.79736e-07
9.45181e-18
0.0691196
4.64498e-05
2.27027e-05
7.41165e-43
0
2.66583e-07
0.0108025
0.00449217
1.38383e-11
2.35471e-07
1.61561e-39
3.39204e-39
1.45968e-07
2.8245e-07
8.60528e-06
2.30879e-06
1.92198e-43
8.45369e-43
0
0.00810941
0.0028689
0.00741296
1.00401e-06
6.24213e-33
0
1.00972e-22
0
1.26389e-07
7.87832e-08
2.18104e-39
1.84092e-39
3.14187e-39
1.08263e-39
0.00540856
0.00155349
2.091e-39
5.93872e-07
0
3.01702e-06
2.35796e-43
2.73414e-43
0
1.03764
5.32974e-40
1.55963e-40
6.68956e-08
4.1931e-08
5.02043e-10
0.00311553
0.000664769
0
0
7.23985e-44
2.48959e-44
5.60347e-41
1.49777e-44
0.00147211
0.000189317
3.49279e-08
2.20176e-08
2.52832e-08
1.33593e-08
5.7645e-45
0
0
0
0.000510885
1.64402e-05
0.00304547
0.278957
3.31409e-23
2.12163e-20
1.7999e-08
2.72714e-08
0
0
1.46918e-08
0
0
1.2536e-45
0
0
9.43297e-05
0
0.987986
0
0.959359
7.82006e-09
0
1.45379e-42
0
0
0
0
2.10354e-36
1.30869e-37
1.5181e-35
6.44263e-36
5.06092e-35
2.87565e-35
1.13611e-34
7.6142e-35
1.8941e-34
1.44905e-34
2.44562e-34
2.05878e-34
2.42642e-34
2.28635e-34
1.81231e-34
1.99866e-34
7.58995e-35
9.66611e-35
0
1.21544e-36
1.71148e-33
0
0
0
0
0
0
0
1.92259e-34
4.62465e-35
0
0
0
0
0
0
0
0
0
0
0
0
0
0
5.5285e-25
0.000984332
0.000534905
0.000957108
0.000527349
0.000862307
0.000483533
0.000716898
0.000408732
0.000550599
0.000318779
0.000391892
0.000230008
0.000259329
0.000153993
0.000161783
9.65664e-05
9.48482e-05
5.71882e-05
8.94471e-05
5.16716e-05
3.1585e-05
2.60055e-05
1.61558e-05
1.20238e-05
1.85165e-05
7.61053e-06
9.79399e-06
7.63388e-06
1.11815e-05
4.69697e-06
5.79673e-06
4.02317e-06
5.54975e-06
1.67663e-06
2.13725e-06
2.82771e-06
3.34972e-06
1.66102e-06
1.89176e-06
4.99567e-07
5.62774e-07
9.52542e-07
1.04387e-06
7.99159e-08
6.96385e-08
1.37988e-08
1.99213e-08
0
0
0
0
1.02295e-47
6.24824e-10
0
8.24476e-09
1.18701e-47
8.36183e-08
5.33342e-07
5.63522e-07
1.02342e-06
5.37328e-07
9.08552e-07
2.97849e-07
0
0
0
0
0
0
0
0
0
4.5998e-07
7.11342e-07
2.52376e-46
4.43799e-07
4.42765e-09
0
0
2.45931e-47
0
0
0
0
0
0
9.89918e-09
1.35723e-08
4.48495e-09
3.38519e-47
0
7.50893e-15
0
4.7721e-47
0
0
0
0
1.28885e-22
7.92579e-24
1.35325e-25
3.37376e-23
1.38075e-23
1.10288e-22
0
3.46263e-07
4.87388e-07
0
0
0
0
0.0701207
0
0
6.62219e-09
8.58373e-09
2.40715e-17
0
0
1.46384e-17
4.36995e-19
2.24726e-17
5.12541e-18
9.53191e-17
8.0037e-16
0
0
4.74094e-18
3.81524e-18
7.10477e-18
8.24669e-18
8.96535e-18
4.22233e-18
3.50605e-18
7.28988e-18
3.34521e-18
4.1453e-18
4.37297e-18
5.44584e-18
4.96455e-18
6.72765e-18
5.19471e-18
2.65315e-18
2.52509e-18
5.22785e-18
2.34178e-18
7.77865e-19
6.70435e-19
2.13803e-18
5.57889e-19
9.25814e-20
5.95115e-20
0
0
1.91253e-18
0
0
6.72904e-23
7.75843e-23
0
8.90568e-23
1.16977e-22
1.03247e-22
1.45166e-23
1.98452e-18
8.13717e-23
6.39206e-23
5.52313e-23
2.43257e-09
2.33359e-47
3.21549e-23
2.17698e-23
0
0
1.31878e-13
0
2.38707e-09
0
0
9.01815e-48
2.27736e-07
2.90129e-07
3.79732e-47
6.11549e-24
3.35289e-24
1.38362e-23
1.64313e-24
8.26812e-24
6.78561e-25
0
0
4.63217e-24
0
0
1.36601e-47
7.6335e-48
3.67069e-48
1.33827e-39
0
0
0
0
0
1.57088e-35
0
0
2.62157e-06
4.10919e-09
5.00273e-09
3.19569e-09
0
0
1.04838e-16
0
8.3142e-28
8.82225e-28
1.02066e-23
8.39524e-49
2.43845e-49
1.30661e-09
0
0
0
0
0
0
0
1.96625e-51
1.2176e-51
3.01427e-51
3.50566e-51
2.36648e-51
3.64187e-51
1.08027e-51
2.15843e-51
1.96074e-52
6.10503e-52
0
3.4972e-53
1.59238e-53
1.55962e-51
2.06014e-52
3.46238e-51
0
8.14487e-52
6.49328e-51
2.23622e-51
1.06739e-50
4.97146e-51
1.56003e-50
1.30962e-09
0
0
1.29896e-07
1.48578e-07
1.03859e-07
0
2.09557e-48
0.000427636
1.24524e-09
2.23079e-09
0
0
0
1.67541e-30
4.953e-30
4.86898e-30
1.10971e-29
1.7223e-29
1.38165e-29
2.44037e-29
1.24438e-29
2.41765e-29
6.43329e-30
1.4191e-29
4.23885e-29
1.62485e-30
2.86673e-29
6.85211e-29
5.29168e-29
1.02505e-28
8.82706e-29
1.42231e-28
1.32931e-28
1.78563e-28
1.81768e-28
1.99998e-28
4.67604e-29
2.26156e-28
2.03874e-28
2.57262e-28
1.82183e-28
2.66343e-28
1.19457e-28
8.95543e-29
2.45874e-28
3.78342e-29
0
0
0
0
2.0881e-28
2.58926e-29
0
0
0
0
0
1.92303e-23
0
7.76619e-23
1.38964e-22
0
5.0762e-23
0
1.61442e-22
7.88821e-22
1.0484e-21
7.13611e-10
7.00459e-10
2.08393e-52
2.70348e-22
1.26961e-21
3.1816e-21
3.27978e-21
1.093e-27
8.063e-28
7.89895e-28
5.44717e-28
5.80102e-28
3.35031e-28
2.00768e-28
1.03838e-28
3.04276e-29
1.20814e-29
4.93842e-29
4.25255e-30
0
0
1.49231e-30
0
1.49543e-32
3.36022e-32
4.02726e-32
3.58281e-32
2.10127e-32
8.56202e-33
2.39139e-32
1.96961e-33
8.88848e-51
1.9287e-50
1.40692e-21
3.13346e-21
5.32171e-21
4.37259e-21
5.41833e-21
3.27291e-21
3.35184e-21
1.82325e-21
1.10505e-22
4.77054e-24
8.4267e-22
0
8.31192e-22
0
9.53127e-22
8.38348e-19
0
0
4.07128e-16
0
0
0
0
0
2.76082e-10
4.81434e-10
4.63319e-11
6.19728e-10
9.82373e-11
6.89074e-10
0
6.44077e-35
0
0.000264122
0
0
0
2.34591e-09
2.65073e-09
5.71405e-09
2.75311e-09
6.03299e-09
2.69114e-09
5.93451e-09
2.51877e-09
5.60845e-09
2.22054e-09
5.00584e-09
1.81482e-09
4.15492e-09
1.35045e-09
3.1533e-09
8.93152e-10
2.14065e-09
5.06006e-10
1.25802e-09
2.29158e-10
6.03573e-10
6.91277e-11
2.08654e-10
1.54303e-09
5.87625e-10
3.83369e-09
1.57745e-09
9.27599e-09
1.24797e-12
4.07378e-09
2.18973e-08
1.01812e-08
5.05059e-08
2.47138e-08
1.13942e-07
5.83239e-08
2.51613e-07
1.34051e-07
5.44194e-07
3.00537e-07
1.15342e-06
6.58118e-07
2.39685e-06
1.40908e-06
4.88509e-06
2.9519e-06
9.76805e-06
6.05417e-06
1.91665e-05
1.2162e-05
3.69114e-05
7.14486e-06
2.39401e-05
6.97806e-05
9.51796e-05
0.000174032
0
0
0
0
7.0668e-17
1.14186e-32
0.000129519
0.000312691
5.57285e-18
0.000382094
0.000667013
0.000552053
0.00114464
0.00128111
0.002143
0.00193098
0.00352504
0.00368862
0.00592632
0.005701
0.0093622
0.00937444
0.0144755
0.0145521
0.0219414
0.0200954
0.0296685
0.0326564
0.043015
0.0364667
0.0514938
0.061229
0.0713702
0.0562947
0.0758995
0.0970322
0.100468
0.0746448
0.0969591
0.130622
0.123688
0.167087
0.154758
0
1.32451e-50
2.05262e-50
1.11979e-09
1.96336e-09
0
0
1.27401e-38
3.89717e-10
3.73409e-10
6.34829e-08
6.47373e-08
1.54509e-07
6.04036e-08
1.48172e-07
5.00808e-08
1.27008e-07
3.58877e-08
0
0
0
0
1.69247e-54
1.32188e-27
1.36593e-10
6.83067e-10
0.0689476
1.19632e-09
8.56934e-08
2.29612e-34
2.66737e-09
0
0
9.53363e-08
2.10945e-08
0.210154
0.189833
1.20373e-09
1.98358e-10
0
9.3612e-38
1.22684e-37
4.83124e-31
0
0
0
0
1.4352e-38
0
3.80772e-40
1.66972e-40
1.60816e-39
2.59371e-41
3.12885e-39
2.464e-39
2.73469e-39
2.79282e-39
1.5456e-39
1.68792e-50
0
1.53759e-49
0
0
0
1.83346e-43
2.35145e-45
3.92028e-42
1.29863e-42
1.2053e-41
5.14041e-42
2.12845e-41
1.02095e-41
2.60207e-41
1.33639e-41
1.7464e-41
1.16295e-41
2.22205e-42
4.26646e-42
0
0
0
0
1.765e-38
4.80215e-37
7.58001e-36
2.63897e-36
2.30024e-35
5.05066e-35
8.4721e-35
4.24746e-35
1.03587e-34
1.88073e-34
5.48436e-35
1.22275e-34
1.60112e-34
3.906e-36
0
0
0
0
2.73307e-30
0
9.44297e-29
2.27257e-28
7.10136e-28
1.37961e-27
2.543e-27
4.38961e-27
5.56954e-27
8.77194e-27
3.46517e-27
7.29587e-27
1.35398e-26
1.08447e-26
1.30386e-26
0
1.98353e-26
1.43958e-26
7.96227e-28
0
1.53768e-26
0
0
0
0
0
5.40529e-22
1.61965e-21
6.99462e-23
4.05708e-21
1.09566e-20
1.84067e-20
8.58504e-21
2.5439e-20
3.25456e-20
3.36635e-20
9.75658e-20
2.55045e-19
1.46546e-20
8.4916e-19
1.60226e-18
8.16061e-42
1.56447e-10
6.04298e-10
2.06684e-09
1.64119e-09
5.01949e-10
0
9.45154e-10
0
1.70882e-39
2.13424e-10
1.99111e-10
1.12344e-50
2.32991e-13
0
2.91657e-35
7.7935e-10
2.18798e-09
0.0650588
1.91219
0
2.31889e-08
0
0
8.06632e-23
1.22104
3.81847e-19
0.132047
0.157331
0.228209
0.183451
4.24252e-29
0
5.88827e-19
2.40297e-18
3.37561e-18
3.46206e-18
2.01592e-18
1.65228e-18
2.9242e-18
5.84823e-28
8.49895e-07
5.8163e-38
1.11229e-37
9.74888e-38
6.99374e-38
0
0.00361338
0.00316633
0.00433448
0.118701
0.133798
0.209212
0.147249
0.233191
0.158042
0.253832
0.165175
0.269526
0.167452
0.278708
0.165876
3.50822e-21
2.98678e-19
1.15657e-08
4.99887e-09
0
0
1.30169e-08
2.64573e-08
0
6.45561e-53
0
0
3.64154e-38
2.10192e-38
1.17594e-10
1.06692e-10
5.48278e-40
5.35774e-51
1.84784e-11
5.99982e-08
9.10756e-09
0.279788
1.51958e-06
6.72549e-42
3.42099e-43
0
0
0.217069
1.18347e-22
4.66654e-38
1.13378e-38
2.03452e-39
0
9.19655e-21
1.56619e-21
1.8934e-21
0.16095
0.00131135
0.00118876
5.99e-05
8.63154e-25
4.54163e-25
0
0
0
0
3.7195e-09
1.04338e-08
0
2.86339e-17
7.70259e-58
0
0
8.65024e-51
1.76947e-53
2.48104e-53
0
1.21735e-10
6.55256e-11
5.77536e-11
0.0557585
5.47851e-33
7.45794e-36
4.30075e-35
4.37231e-35
6.2213e-35
4.61968e-35
4.48843e-35
2.86443e-35
1.82084e-35
9.46237e-36
3.51486e-36
1.30091e-36
8.64154e-38
6.37548e-37
0
9.357e-09
0.0141413
0
0
1.09211e-08
7.36655e-40
1.73273e-39
0
0
0
2.91382e-08
2.10758e-09
3.96565e-10
0
0
0
0.0808869
0.0943553
6.24138e-40
0
3.54889e-20
8.11001e-22
0
0
0
0
0
0
0.348938
9.19159e-11
4.86702e-11
7.60089e-11
3.97906e-11
6.07057e-11
2.62684e-11
0
0
0
0
0
0
0
0
0
0
0
4.19996e-08
0.275791
0.000399601
0.000380253
1.33035e-50
3.74115e-25
1.99933e-25
1.16555e-22
7.14689e-23
7.39949e-09
1.94134e-08
8.88818e-18
0
3.17462e-11
4.67328e-11
0
1.00134e-55
1.05898e-40
8.52599e-40
1.59589e-39
9.54898e-52
0.152178
0.0808199
3.99369e-41
2.50546e-39
0
2.97821e-08
0
0
2.90948e-38
1.0112e-19
1.06085e-19
0
0
0
0.00104558
0.000349236
0.000892957
1.00554e-18
0
0
2.32944e-51
3.40317e-54
0
0
0
0
1.78882e-48
0
0
1.65271e-37
8.85238e-40
1.21847e-39
0
0
0.00122599
0
0
1.51366e-19
1.83237e-19
4.42517e-08
1.9355e-15
3.19254e-17
3.56708e-19
1.63227e-07
8.73119e-08
9.52702e-05
3.04297e-19
9.90195e-20
2.04803e-19
2.2095e-19
2.77018e-19
2.26513e-19
2.95266e-19
1.91006e-19
2.71424e-19
1.30109e-19
1.75804e-50
0
0.000310216
1.27968e-25
1.32419e-08
5.12229e-09
3.27862e-08
4.86982e-08
0
8.20026e-07
0.0722465
0.0340581
0.265797
3.52699e-05
0
0
2.00315e-19
6.94498e-20
1.01798e-06
3.41953e-19
3.95958e-19
0.000215867
7.28455e-06
4.42985e-34
4.22323e-41
0
2.29722
8.81897e-05
8.27299e-28
1.09581e-27
4.00708e-28
5.96628e-28
1.08853e-28
2.28316e-51
4.4727e-36
0
1.92116e-47
0.000740975
1.33861e-07
2.55148e-06
0
0
0
1.17206e-19
2.45484e-11
3.43133e-11
0
0
1.91193e-28
3.19436e-46
2.76081e-46
0
8.16359e-40
7.77482e-40
0
0
3.95264e-22
0
0
8.48889e-25
2.07539e-19
1.29028e-08
0
0
2.16314e-08
7.70391e-23
4.21822e-23
0.000810905
3.14306e-37
1.49953e-36
2.78272e-55
0
2.4883e-48
3.4098e-48
3.4323e-48
3.28443e-48
1.6216e-52
6.64292e-40
3.46508e-40
0
8.31221e-29
2.06755e-06
7.94835e-30
2.99406e-46
2.08705e-46
0
0.0281862
4.26147e-07
2.46961e-07
0.00143113
2.85426e-26
1.23444e-25
1.16342e-05
7.69344e-06
0.0112255
3.62588e-19
0.434508
2.90147e-19
0
2.57956e-25
0
0.000266807
9.0409e-05
0
0
0
6.39714e-25
0.00145877
3.77247e-47
1.6211e-09
7.46698e-10
4.43074e-10
3.33933e-10
2.02281e-10
1.44815e-10
2.3424e-10
8.98055e-11
9.6124e-11
1.52301e-10
3.41716e-09
4.29837e-47
3.35751e-23
1.59529e-23
6.71278e-23
2.183e-23
7.17388e-24
1.0758e-23
3.04524e-24
5.05359e-24
1.29728e-24
4.28725e-25
5.96156e-26
1.52202e-07
5.08342e-08
0
0
0.000597764
8.79909e-48
1.80759e-11
2.36396e-11
1.34015e-11
0
0
0
5.88537e-11
9.1247e-11
4.25823e-08
8.15902e-28
3.01729e-28
1.02889e-27
4.74686e-47
3.91629e-07
3.17155e-07
1.6195e-07
3.75681e-08
3.64924e-40
4.3499e-28
1.1888e-27
1.18084e-46
6.51358e-47
1.03228e-27
0
2.82153e-25
1.20277e-36
1.80372e-36
2.62392e-48
1.62998e-48
4.65599e-40
1.04627e-40
4.12249e-46
0
0
1.54431e-56
1.54918e-55
0
0
4.47337e-26
1.77197e-25
7.04523e-25
0.00823492
0.0222506
5.07233e-26
6.25082e-26
4.6491e-11
2.98511e-11
4.55183e-19
1.18737e-10
0
0
0
0
3.95948e-19
6.42874e-30
0
0.00586781
0.00887389
8.18117e-05
2.04383e-05
2.31865e-48
0
1.48695e-22
1.27248e-19
1.58287e-07
2.87921e-08
8.42944e-07
6.45655e-07
1.50014e-11
1.75073e-11
3.62542e-11
1.95879e-11
5.73499e-28
1.27588e-27
1.07056e-06
1.45282e-06
6.64307e-07
0
0
0
4.83479e-47
0
0.002442
0.0037579
6.2698e-06
0.0270965
8.20027e-40
2.2256
1.06521
0
2.74853e-08
9.06235e-31
0
0
0.217907
3.95862e-24
0
2.18241e-23
1.3689e-23
3.73566e-23
2.54376e-23
4.52393e-23
3.26308e-23
3.22439e-23
2.82463e-23
0
2.25129e-23
2.22755e-23
1.51858e-23
1.6383e-23
9.90218e-24
1.14999e-23
8.15143e-24
6.31369e-24
6.79783e-19
0.00526455
6.46787e-49
0
0
0
0
3.4183e-60
7.99845e-58
3.29924e-11
4.99546e-11
0
0
0
1.58487e-47
5.74418e-48
1.35451e-32
2.78776e-32
0
0
1.41233e-25
0
7.993e-24
3.96515e-24
2.10243e-24
1.20769e-24
4.20683e-25
2.67513e-25
4.21041e-11
2.08093e-11
1.69525e-26
3.60856e-26
4.87159e-26
4.4397e-26
8.69309e-53
1.2749e-53
6.4816e-35
3.25656e-08
1.25204e-47
2.61383e-47
2.01681e-05
0
0
2.4012e-10
1.59365e-06
1.16864e-06
1.43376e-07
1.74451e-08
7.29152e-08
0
2.53916e-61
2.16444e-11
0
0
4.42632e-25
6.97093e-25
2.16711e-56
1.75786e-56
1.08578e-36
1.10809e-36
1.98073e-36
7.93893e-37
8.37409e-37
1.63717e-36
3.95396e-37
1.02506e-48
3.58061e-49
4.1184e-32
4.21579e-32
0
0
0
0
0
4.63448e-11
2.06045e-11
5.31166e-32
0.00142223
0.00108955
0.00228676
4.54793e-08
1.06182e-07
5.0214e-53
6.14973e-55
7.1203e-54
0
0
0
0
0
0
0
0
0
0
1.29441e-64
2.7587e-65
1.84074e-64
1.96849e-64
1.26126e-64
2.0559e-64
4.7872e-65
1.1579e-64
4.43427e-66
2.56131e-65
0
0
0
0
0
0
0
0
0
0
0
4.68602e-66
2.24533e-64
0
1.61853e-65
0
4.85897e-65
0
1.4807e-64
0
0
1.57132e-64
3.11931e-64
3.15595e-66
0
0
0
6.15191e-21
1.55656e-20
2.11049e-19
1.33276e-19
8.84632e-19
1.28574e-18
3.58599e-18
4.6225e-18
1.0161e-17
1.12969e-17
1.90014e-17
1.75332e-17
1.98453e-17
1.46493e-17
9.54934e-18
4.8327e-18
1.92139e-17
6.04103e-19
0
5.27951e-20
7.38217e-18
6.5981e-17
2.62868e-18
5.48418e-17
3.0452e-15
4.61635e-17
2.49242e-43
1.28631e-26
1.88551e-26
0
2.46488e-26
1.07739e-26
9.47204e-27
4.5494e-27
4.45033e-27
3.87661e-27
0
0
0
6.97703e-28
1.26589e-27
1.06654e-36
0
0
4.44168e-33
0
6.0827e-31
7.21651e-30
1.06717e-29
1.65895e-30
1.32623e-29
1.67645e-11
2.46977e-11
0.00559679
0.0166358
3.20842e-07
2.53075e-08
0
4.26161e-12
3.37467e-06
3.89365e-06
2.04977e-08
4.72887e-11
1.96214e-11
0.000481411
0.00095439
5.41941e-19
5.08085e-19
2.7831e-19
0
3.07222e-06
1.87114e-27
2.61476e-27
0
1.53848e-27
9.94113e-28
5.6617e-18
1.28219e-48
1.41338e-48
0
0
0
2.40881e-46
0.00167476
0.000813265
0.00315379
9.45571e-37
1.11536e-37
0.0245351
0.0171153
0.0342248
0.0129772
5.17507e-20
0
8.91888e-48
3.90644e-48
1.16023e-07
5.82156e-09
9.00612e-12
8.60483e-12
0
2.59385e-25
0
0
2.24968e-56
7.06475e-57
0
0
0
0
0
2.48436e-51
0
3.30162e-64
9.27254e-64
0
0
0
0
0
5.79701e-24
3.52634e-06
2.70931e-06
1.91566e-06
6.47444e-10
0
0
0
0
0
0
0
0
1.01703e-28
4.9122e-19
2.10324e-23
4.65285e-23
0.132369
3.83101e-35
1.07489e-21
1.88792e-05
0.00151647
0
2.041
1.51707e-08
0
7.61617e-12
1.08278e-11
3.57023e-11
1.49676e-11
4.07138e-12
5.26104e-12
4.15135e-51
2.65695e-32
2.04266e-32
2.62022e-49
2.79377e-30
1.46239e-29
2.62359e-57
0
0
0
3.73166e-25
4.20745e-25
8.53374e-25
3.83456e-25
2.6255e-25
6.19177e-37
5.29795e-37
2.97136e-38
0
3.20947e-39
0
0
0
0
3.71628e-65
7.87267e-28
1.17602e-27
1.07104e-27
7.36338e-28
0
0
0
0
0
7.3233e-28
1.65767e-24
2.64664e-24
8.22101e-26
3.73873e-24
1.75946e-23
2.00209e-23
5.18067e-23
5.14733e-23
8.30567e-23
7.24407e-23
4.82898e-23
5.93194e-23
4.28043e-23
4.50102e-23
6.04003e-23
3.55644e-23
3.12318e-23
2.70013e-23
1.93277e-23
1.04213e-23
0
0
0
0
9.35997e-23
1.04212e-21
1.15452e-21
1.82678e-22
9.85481e-22
4.91718e-21
4.93915e-21
8.64565e-22
6.44387e-21
1.02468e-21
8.51277e-21
4.6157e-20
4.58813e-20
9.96452e-21
3.88751e-20
2.09843e-23
1.24482e-19
7.9332e-20
2.94153e-20
4.59282e-20
7.62446e-20
3.45041e-20
2.94577e-20
1.25927e-21
1.44447e-20
2.79893e-23
2.49025e-21
0
0
6.79567e-20
1.81933e-20
2.53533e-17
0
0
0
0
0
0
0
7.72636e-13
3.72676e-11
0
5.46238e-12
1.17364e-10
1.11742e-10
9.01905e-12
9.51743e-11
5.30953e-10
3.76437e-10
1.52588e-09
9.77786e-10
2.55323e-10
6.05919e-10
1.93945e-09
1.12463e-09
3.13816e-09
1.72392e-09
4.29235e-09
2.25065e-09
9.23229e-10
1.15255e-09
2.55598e-09
1.25828e-09
2.5752e-09
1.23032e-09
2.35624e-09
1.08742e-09
1.91083e-09
5.76211e-10
4.90618e-10
2.64224e-10
2.16403e-10
1.18411e-10
4.82318e-10
9.33009e-11
1.56107e-10
5.18856e-11
6.04004e-11
2.69056e-11
1.66331e-10
4.98956e-09
2.22317e-11
1.17163e-11
2.89663e-11
0
0
1.1265e-09
2.71339e-25
8.60319e-55
9.28286e-56
9.9238e-08
9.06582e-07
0
8.52193e-06
8.67234e-06
4.57952e-11
1.7731e-11
9.09907e-11
4.09582e-26
2.03272e-27
0
0
6.29404e-28
0
0
7.04941e-32
0
2.46758e-31
5.05646e-19
2.844e-19
4.81334e-07
0
0
0
0
0
0
3.80898e-29
6.1708e-26
1.07658e-30
7.66957e-31
3.3467e-31
5.72483e-31
5.11852e-31
3.60548e-31
2.13997e-31
1.32808e-31
4.57199e-32
2.31241e-32
7.80394e-32
1.05532e-32
2.53029e-34
0
4.31572e-32
4.04431e-32
1.36043e-32
2.58548e-33
8.23803e-34
7.78134e-33
4.82862e-35
0
0
3.88372e-19
1.55963e-19
0
0
2.1524e-38
6.57873e-38
0
0
1.23094e-10
5.62284e-11
5.1551e-48
0
0
0.0556573
6.03417e-47
4.08784e-47
0.046489
0.0183864
0.00221695
0.00378721
1.63921e-05
0.000136506
0
2.75192e-51
1.86759e-52
0
0
3.1988e-48
0
9.61935e-24
2.44397e-23
9.69655e-23
5.75913e-23
1.90209e-22
1.26744e-22
3.50375e-22
2.60711e-22
6.04533e-22
5.00105e-22
9.79437e-22
9.88292e-22
1.70237e-21
1.73063e-21
4.24163e-21
3.48438e-21
2.70555e-21
1.07782e-20
7.95972e-21
2.16377e-20
1.53466e-20
3.81291e-21
7.01969e-21
3.64676e-21
5.9425e-21
1.18434e-20
9.78442e-21
6.52821e-21
1.08724e-20
1.53027e-20
1.76237e-20
1.00422e-20
1.70786e-20
5.03851e-11
5.29502e-19
8.66675e-20
0
7.98959e-09
0
0
0
0
9.94662e-17
1.04537e-19
0
1.86611e-23
0
8.4098e-22
0
5.94841e-21
0
1.3717e-20
1.40058e-20
2.43982e-21
2.30102e-20
1.10914e-20
3.41148e-20
2.33007e-20
4.69283e-20
3.81822e-20
5.8952e-20
4.43007e-20
4.80477e-20
6.92194e-20
5.06284e-20
7.9005e-20
5.06389e-20
8.70612e-20
4.87532e-20
9.19101e-20
2.83706e-20
2.19752e-20
4.51893e-20
9.12154e-20
3.94537e-20
8.67327e-20
1.07159e-19
3.23921e-20
7.83045e-20
1.04733e-20
1.60294e-19
1.55029e-19
5.67048e-07
2.11975e-06
9.72685e-08
1.5724e-07
5.91873e-08
0.040181
0
0
9.00696e-51
2.34093e-51
2.86763e-50
1.08655e-50
4.67918e-50
2.10818e-50
5.13637e-50
2.65911e-50
2.32874e-50
1.84179e-50
0
6.42064e-51
0
0
0
0
6.99583e-46
0
3.54441e-44
8.88002e-45
1.10947e-43
4.02906e-44
1.92924e-43
8.03407e-44
2.34806e-43
1.05622e-43
1.64131e-43
9.43995e-44
2.87623e-44
3.58853e-44
0
0
0
0
4.17905e-39
6.38034e-43
8.73387e-38
2.53067e-38
2.54953e-37
6.31328e-37
9.97831e-37
4.46025e-37
1.16879e-36
2.31192e-36
1.19833e-36
8.01652e-37
9.53135e-38
0
0
0
0
6.47325e-34
1.03166e-30
3.02942e-30
9.89494e-30
2.23117e-29
0
4.04119e-29
7.97287e-29
9.82276e-29
1.78662e-28
5.28149e-29
1.46921e-28
2.19148e-28
1.51954e-28
0
6.12379e-29
4.29686e-29
0
0
0
9.99764e-30
0
0
0
0
0
0
5.29642e-28
0
1.19418e-24
5.58392e-24
0
2.0313e-23
1.26032e-22
2.81391e-22
6.27215e-23
6.06311e-22
1.68e-22
1.25614e-21
2.56657e-21
4.67366e-21
2.48652e-21
8.15793e-21
1.09078e-20
1.73581e-20
1.36514e-20
2.66076e-20
2.69694e-20
4.32855e-20
2.30763e-20
4.69257e-20
4.1642e-20
0
0
7.98532e-19
0
0
0
0
1.00492e-11
1.80255e-12
4.17499e-11
1.11194e-11
9.22757e-11
2.82158e-11
1.49567e-10
4.92455e-11
1.98579e-10
6.86573e-11
2.28025e-10
8.16543e-11
6.20501e-10
2.32864e-10
8.5531e-11
1.53061e-49
5.76539e-49
8.8347e-51
9.31855e-12
4.98932e-12
8.30069e-28
2.9796e-57
7.50137e-59
0
6.601e-38
6.12398e-38
3.71807e-30
1.44736e-29
3.39499e-29
2.55318e-29
1.96326e-51
8.37267e-25
2.70855e-25
0.00344996
0.0116665
0.0411127
0.0311351
0.0889327
4.1384e-12
8.837e-12
0.0709291
0.173012
4.23181e-11
1.50681e-11
6.0313e-12
4.60929e-12
1.18697e-11
3.18804e-12
8.48838e-12
1.92536e-12
5.34186e-12
9.51899e-13
2.80507e-12
3.3045e-13
1.10423e-12
1.35746e-14
8.40882e-14
1.15399e-12
0
0
6.12937e-51
0
0
1.52406e-13
0
0
0
6.79324e-09
0
1.80995e-05
1.81222e-05
1.67716e-05
1.62219e-11
6.63148e-20
1.43249e-19
1.38934e-07
3.70998e-11
0
1.13092e-50
0
5.46022e-18
8.10237e-38
1.26243e-23
0
0
4.20666e-30
6.5708e-51
5.89466e-42