/*--------------------------------*- C++ -*----------------------------------*\
  =========                 |
  \\      /  F ield         | OpenFOAM: The Open Source CFD Toolbox
   \\    /   O peration     | Website:  https://openfoam.org
    \\  /    A nd           | Version:  6
     \\/     M anipulation  |
\*---------------------------------------------------------------------------*/
FoamFile
{
    version     2.0;
    format      ascii;
    class       volScalarField;
    location    "10368000";
    object      Cw;
}
// * * * * * * * * * * * * * * * * * * * * * * * * * * * * * * * * * * * * * //

dimensions      [1 -3 0 0 0 0 0];

internalField   nonuniform List<scalar> 
11831
(
0
0
0
0
0
0
0
0
0
0
0
0
0
0
0
0
0
0
0
0
0
0
0
0
0
0
0
0
0
0
0
0
0
0
0
0
0
0
0
0
0
0
0
0
0
0
0
0
0
0
0
0
0
0
0
0
0
0
0
0
0
0
0
0
0
0
0
0
0
0
0
0
0
0
0
0
0
0
0
0
0
0
0
0
0
0
0
0
0
0
0
0
0
0
0
0
0
0
0
0
0
0
0
0
0
0
0
0
0
0
0
0
0
0
0
0
0
0
0
0
0
0
0
0
0
0
0
0
0
0
0
0
0
0
0
0
0
0
0
0
0
0
0
0
0
0
0
0
0
0
0
0
0
0
0
0
0
0
0
0
0
0
0
0
0
0
0
0
0
0
0
0
0
0
0
0
0
0
0
0
0
0
0
0
0
0
0
0
0
0
0
0
0
0
0
0
0
0
0
0
0
0
0
0
0
0
0
0
0
0
0
0
0
0
0
0
0
0
0
0
0
0
0
0
0
0
0
0
0
0
0
0
0
0
0
0
0
0
0
0
0
0
0
0
0
0
0
0
0
0
0
0
0
0
0
0
0
0
0
0
0
0
0
0
0
0
0
0
0
0
0
0
0
0
0
0
0
0
0
0
0
0
0
0
0
0
0
0
0
0
0
0
0
0
0
0
0
0
0
0
0
0
0
0
0
0
0
0
0
0
0
0
0
0
0
0
0
0
0
0
0
0
0
0
0
0
0
0
0
0
0
0
0
0
0
0
0
0
0
0
0
0
0
0
0
0
0
0
0
0
0
0
0
0
0
0
0
0
0
0
0
0
0
0
0
0
0
0
0
0
0
0
0
0
0
0
0
0
0
0
0
0
0
0
0
0
0
0
0
0
0
0
0
0
0
0
0
0
0
0
7.7783e-34
2.12122e-20
4.42944e-20
-7.22088e-31
-2.71062e-25
-3.38734e-33
2.61956e-16
-1.90018e-32
3.60506e-35
-1.56841e-30
-4.01573e-17
1.60009e-24
1.59605e-13
7.86543e-34
-4.52872e-30
3.50105e-32
1.08517e-28
1.86347e-30
-1.87209e-13
5.79641e-38
2.8341e-35
1.12274e-32
2.72912e-11
-6.25366e-35
1.25765e-40
-5.88135e-31
-4.04146e-11
1.93728e-32
-3.03747e-33
-2.73172e-39
4.0772e-37
-2.25487e-10
6.84444e-32
-6.58461e-36
-5.93009e-43
2.23122e-10
-6.08498e-34
1.80092e-42
-1.81097e-39
6.50353e-11
1.58014e-32
9.94239e-40
4.75251e-45
-7.55377e-10
1.64132e-34
5.95712e-47
-5.39545e-41
-1.52965e-09
-2.16769e-34
-1.35084e-18
9.53574e-31
-6.89643e-22
1.46897e-33
-4.77568e-42
-5.57817e-24
4.26675e-33
-3.34478e-18
1.22459e-31
-1.42287e-26
-2.39152e-31
-8.28581e-33
3.53418e-47
1.01767e-27
9.49207e-15
3.589e-09
-3.33442e-36
-6.76375e-15
2.23584e-33
5.88618e-35
1.59838e-44
-3.16908e-49
1.98083e-09
1.97122e-35
-5.88367e-50
-4.2312e-43
4.51183e-09
-6.55123e-31
-9.31114e-31
1.42982e-32
-1.30735e-34
1.23071e-36
1.34736e-32
5.71142e-32
-4.29681e-32
-1.92632e-34
-2.04112e-12
-9.27153e-43
-7.29369e-39
4.29872e-12
4.6165e-11
-3.18346e-36
-9.64094e-11
-1.52585e-46
3.71056e-36
5.26303e-10
1.93175e-51
2.30173e-36
7.79992e-45
-2.46132e-52
1.80434e-09
-1.83367e-44
2.01867e-34
3.3204e-32
7.70841e-38
6.55262e-35
1.01743e-47
-2.83345e-33
3.03138e-41
5.08694e-33
-1.61098e-40
3.44523e-34
2.23832e-43
-1.57889e-34
-1.50053e-20
9.10584e-18
1.26912e-33
1.07424e-27
1.97222e-30
2.8793e-31
6.38025e-20
-5.41785e-33
-5.60859e-22
4.61396e-32
-1.40302e-31
-8.83952e-31
-1.39738e-21
2.06041e-23
2.43263e-30
-5.34333e-30
2.37421e-31
-2.54666e-32
-5.57539e-41
-1.37262e-35
-4.37353e-09
-1.73656e-15
3.35574e-32
3.93494e-24
1.65507e-32
4.27151e-14
-8.05329e-33
5.70591e-38
1.25387e-09
-2.84924e-13
-8.18561e-46
-3.78988e-32
4.68282e-49
-1.39384e-43
-1.31936e-36
8.04869e-42
2.88235e-09
-1.19406e-09
-3.67499e-26
1.64143e-09
-2.78334e-30
-1.46478e-25
-1.08433e-15
7.01248e-34
1.58662e-39
2.13757e-14
5.33431e-13
5.75012e-37
5.29292e-17
-1.48473e-31
2.72207e-09
-2.2523e-47
4.88694e-37
6.91915e-11
-7.97409e-53
1.29714e-33
1.36083e-33
-6.18033e-33
-2.27662e-32
-6.32665e-32
-2.17459e-31
-1.9874e-31
-6.83879e-31
2.05753e-32
5.06801e-31
4.76651e-30
1.84902e-29
2.91178e-29
9.49499e-29
7.0764e-29
3.07542e-28
2.26347e-28
5.80168e-28
-7.84619e-28
-3.37916e-27
-9.49682e-27
-3.48401e-26
-3.42342e-26
-1.12459e-25
-4.89008e-26
-1.07648e-25
3.58248e-25
1.45171e-24
3.11653e-24
1.09951e-23
5.64608e-24
3.71112e-23
2.13503e-23
1.19298e-22
7.90178e-23
3.73874e-22
2.86437e-22
1.14775e-21
1.01353e-21
3.46466e-21
3.47747e-21
1.05121e-20
1.13646e-20
3.16901e-20
3.49221e-20
9.29849e-20
1.03257e-19
2.55385e-19
2.96667e-19
6.20034e-19
-2.50228e-19
-1.42715e-18
1.33381e-18
-6.16967e-18
2.66819e-18
-2.36273e-17
-5.55158e-17
-1.74732e-16
-8.39892e-17
-5.19445e-16
-4.8014e-16
-1.31165e-15
-1.44741e-15
-3.43691e-15
-5.79397e-16
7.68292e-16
1.39562e-14
4.68999e-14
9.84522e-15
1.49603e-13
4.7967e-14
4.60708e-13
6.11414e-13
1.6045e-12
1.37403e-12
4.08579e-12
3.05279e-12
6.31963e-12
1.01527e-11
1.13733e-11
-1.11016e-11
-4.63371e-11
1.73013e-11
-1.66099e-10
-3.52315e-10
-9.98157e-10
-1.20993e-09
-3.0501e-09
-2.72035e-09
-7.35011e-09
-5.61136e-09
-1.22283e-08
-1.70913e-08
-2.41378e-08
-3.83131e-08
-4.02554e-08
1.8332e-08
8.89959e-08
-5.88254e-08
3.21315e-07
7.10826e-07
1.93346e-06
1.02662e-06
5.05633e-06
6.51544e-06
1.57505e-05
1.65037e-05
1.27626e-05
3.69535e-05
3.11426e-05
8.41118e-05
7.35442e-05
0.000185583
0.000168241
0.000397969
0.000372805
0.000829653
0.000799719
1.0051e-22
0.00167978
0.00165945
0.00329898
0.00294962
0.00332747
0.0014276
0.00296581
0.00103483
0.00225349
0.00548095
0.0042667
0.000579936
0.0075073
0.0051416
0.00137049
0.000183827
0.00861793
0.00535281
0.000557276
-7.7385e-05
0.00859488
0.00475145
-1.09033e-05
0.00720051
0.00349147
-0.000199709
-0.000289579
0.00495916
0.00207907
-0.000218786
-0.000374012
0.00273577
0.000965753
-0.000187547
0.00115159
0.000320121
-0.000349617
-0.000106387
0.000324128
5.17631e-05
-0.000220202
2.39478e-05
-1.90234e-05
-3.44796e-05
-8.97049e-05
-3.91218e-05
-2.91236e-05
-1.70269e-05
-1.49997e-05
-1.0346e-05
-5.70718e-06
-4.48612e-06
-1.62455e-06
-1.4615e-06
-3.20266e-07
-3.49369e-07
-2.2054e-08
-5.13369e-08
1.56962e-08
3.09842e-09
1.25126e-08
6.08743e-09
6.15704e-09
3.87412e-09
2.03251e-09
1.54643e-09
4.61119e-10
4.29722e-10
6.19881e-11
8.02809e-11
-3.73502e-12
4.79177e-06
6.48125e-12
-7.5444e-06
-0.00020537
2.4069e-08
-1.89168e-11
-1.34388e-11
-4.35459e-05
-0.000428509
1.53931e-05
-2.31593e-11
-7.36223e-12
-0.000132201
-0.00082901
-0.000323146
-0.00150482
-8.06884e-12
-1.23573e-12
-0.000689211
-0.00256134
-5.87618e-13
2.20225e-13
-0.00133298
-0.00403822
-0.00238185
-0.00598774
5.46189e-13
2.8607e-13
-0.000410886
-0.0039612
-0.00837747
-0.00609693
-0.0108619
3.8099e-13
8.56515e-14
8.61606e-14
1.05604e-14
1.6171e-14
-8.9111e-16
-0.00869098
-0.0130409
1.66156e-15
1.27151e-15
-0.0117106
-0.0144851
-1.03301e-15
-0.0146673
-0.0135799
-3.91592e-16
-0.0168587
-0.0053239
-5.0351e-16
-0.0103823
-0.0182296
0.0127883
-4.41524e-05
-2.84779e-16
-0.0168561
0.0456273
0.192621
0.305423
0.683397
0.918926
1.58502
1.92964
2.77347
3.12512
3.85327
2.23875
3.37242
2.47944
1.02199e-05
8.40099e-06
4.62581e-06
2.02337e-06
8.44132e-07
-8.59932e-10
-7.88555e-08
-1.47742e-07
-8.85006e-08
-6.01706e-08
-2.96119e-08
-7.82178e-09
-2.35131e-09
1.56604e-09
1.10123e-09
1.00025e-09
5.21791e-10
2.07324e-10
7.81704e-11
-9.97481e-12
-9.97966e-12
4.94149e-10
-1.29586e-11
-6.87161e-12
-3.31969e-12
-1.3274e-12
-9.1369e-15
7.54735e-14
3.4956
2.62812
-1.35806e-16
1.40553e-13
7.47734e-14
3.80999e-14
1.57522e-14
2.35562e-13
-1.10613e-16
3.50537
2.68257
8.13681e-11
5.48478e-16
-5.63125e-16
-2.23562e-17
-1.17317e-17
2.25831e-18
6.66055e-18
3.37678
2.6494
-1.32074e-15
-6.9067e-16
-2.5133e-17
6.65706e-20
3.17754e-18
4.08992e-18
-3.38537e-16
-1.39012e-16
3.1236
3.59
2.49085
-1.52114e-18
5.36575e-18
7.42945e-19
4.3813e-19
-3.44682e-17
-4.46183e-20
-1.64702e-19
1.09718e-17
5.42119e-18
4.48053e-18
2.52755e-18
9.36826e-19
3.14955e-19
1.15968e-18
9.54338e-20
-3.68337e-20
-2.25168e-20
2.42495e-20
-1.2589e-20
-7.28688e-21
-3.29412e-21
-6.54236e-21
-1.45057e-21
-6.63698e-23
7.95834e-24
-5.57258e-22
1.48282e-23
3.6643e-23
2.79159
2.24643
-1.8688e-22
1.50799e-23
7.19664e-24
-7.89528e-20
-9.81097e-20
2.39918
1.9479
1.6455
1.44917
1.08217
0.975087
-1.72992e-20
-8.7457e-21
-4.13172e-20
0.636403
2.43639e-24
-1.55338e-25
0.589918
1.29523e-21
3.88833e-21
1.62998
0.330174
1.70398e-21
1.789e-21
7.10193e-21
1.366e-21
8.10713e-21
6.48253e-23
-1.15732e-25
-1.63733e-25
3.71511e-14
5.69717e-22
6.87852e-21
0.318985
-6.97247e-05
-6.05345e-05
1.21987e-11
6.95659e-11
1.3636e-11
5.19156e-11
1.25582e-11
3.42705e-11
9.93712e-12
1.98818e-11
6.92107e-12
9.92213e-12
4.24228e-12
4.02013e-12
2.31402e-12
1.39968e-12
1.05265e-12
1.49581e-13
3.98361e-13
-4.22972e-13
1.1849e-13
-5.82843e-13
-7.89846e-15
-5.45026e-13
-5.7553e-14
-4.24104e-13
-6.41813e-14
-2.93577e-13
-5.46402e-14
-1.85102e-13
-3.97048e-14
-1.08218e-13
-6.48221e-15
-2.60713e-14
-5.81829e-14
-1.56582e-14
-2.91991e-14
-8.73672e-15
-1.31013e-14
-4.46742e-15
-5.4234e-15
-2.11929e-15
-1.91897e-15
-9.01583e-16
-5.75795e-16
-1.0412e-16
5.00092e-16
5.35583e-15
3.56605e-15
5.15732e-16
2.15486e-15
1.02514e-14
5.43558e-15
1.21576e-15
2.76628e-15
1.07567e-14
5.10586e-15
1.35707e-15
2.35159e-15
-1.20444e-15
6.43786e-16
1.05272e-15
3.49744e-15
1.49047e-15
4.58737e-16
6.19934e-16
1.85316e-15
7.39503e-16
2.04436e-15
7.86372e-16
2.88843e-16
2.96791e-16
7.58318e-16
2.78365e-16
1.10131e-16
1.00192e-16
4.0183e-17
3.53884e-17
1.44062e-17
1.22744e-17
6.6198e-16
5.06791e-18
4.18215e-18
1.75047e-18
1.40042e-18
3.10965e-18
1.01109e-18
4.61089e-19
3.23512e-19
6.59107e-19
1.4934e-19
1.01903e-19
-3.59987e-13
4.76018e-20
3.16112e-20
-6.81578e-26
-2.44208e-26
-7.37421e-26
1.49382e-20
0.149959
2.0001e-27
-0.000113053
-7.58302e-05
-3.77039e-22
3.36757e-21
0.152193
2.38104e-27
-0.000163035
-8.62204e-05
9.66082e-21
4.61706e-21
1.34549e-27
1.5598e-27
2.65676e-28
1.9721e-18
0.0589903
-0.000211052
-8.92816e-05
-1.15412e-21
-7.53386e-22
6.53416e-28
1.82316e-28
-0.000250484
-8.31623e-05
2.90972e-21
1.40601e-21
2.08151e-21
0.0628968
0.144876
2.60758e-11
-0.000268241
-6.8414e-05
-0.000262366
-4.69611e-05
-2.4307e-07
8.17398e-06
8.14885e-06
1.13307e-05
1.52384e-05
1.31973e-05
5.17684e-06
4.20745e-06
7.77522e-07
2.47098e-07
-1.90608e-07
-2.94745e-07
-2.00492e-07
-1.80195e-07
-1.74457e-07
-5.02203e-08
-2.9313e-08
8.78345e-11
5.17923e-09
4.12448e-09
4.49247e-09
1.5269e-09
9.526e-10
3.8704e-09
6.66209e-11
3.88558e-10
2.64445e-09
-1.8717e-21
-3.89263e-21
0.0188173
6.40995e-22
0.0637006
0.129679
-4.08301e-12
4.22e-22
5.29149e-29
-1.69133e-29
0.0598794
0.109991
1.94498e-22
8.87114e-22
-2.81492e-11
1.34974e-09
-1.83975e-21
-2.81943e-22
-6.43617e-21
0.0527341
0.0887737
1.24878e-22
5.81716e-23
5.6657e-21
-0.00920292
3.09522e-12
4.92957e-21
2.3676e-13
-7.11341e-26
-9.36709e-30
-5.79235e-30
-1.3462e-29
-9.10378e-31
-0.000515001
-3.22077e-30
0.0438737
0.0683888
-2.44249e-10
3.45284e-10
-5.6407e-23
4.70088e-23
-1.32254e-08
3.6445e-23
1.71548e-23
-2.40273e-31
2.02487e-31
0.0226208
0.0346682
0.050409
-3.32711e-07
0.00145714
-2.99655e-10
-2.6956e-10
-1.602e-10
8.23268e-23
2.58091e-23
0.0261168
0.0356353
0.0620416
0.0415988
0.0665191
0.0241991
1.04931e-23
4.98972e-24
7.63977e-24
1.03423e-31
4.89364e-32
2.24518e-24
2.86261e-10
-6.19705e-11
0.0269514
0.0158084
1.80953e-23
1.05465e-24
-3.00174e-10
-4.67394e-10
-0.000120084
3.79987e-22
1.4319e-24
3.22574e-24
6.50828e-25
2.2221e-32
5.71239e-34
1.05654e-12
0.0139829
0.00150101
-0.00108043
-0.00231231
-0.00310536
-0.00172872
-0.00176593
-0.000677801
-0.000548379
-0.000111807
-3.36864e-05
3.33893e-05
5.17496e-05
2.81974e-05
2.70141e-05
8.03376e-06
0.0168947
0.00996516
-1.64882e-24
-9.97805e-25
5.85817e-24
-2.23408e-10
-4.60431e-10
7.28766e-11
-5.70223e-10
4.05118e-09
1.17399e-09
1.59248e-08
8.73233e-09
3.44997e-08
2.57903e-08
4.54483e-08
4.39094e-08
-3.57684e-08
3.74731e-08
-4.25148e-07
-1.55762e-07
-1.37053e-06
-7.6559e-07
-2.5537e-06
-1.87668e-06
-2.93191e-06
-3.07472e-06
-2.84151e-06
-1.12515e-07
0.00236644
0.0105256
9.3683e-06
6.4031e-06
-1.2731e-11
-4.26769e-11
5.38817e-22
-1.16294e-20
7.16832e-20
1.69001e-20
4.44753e-19
3.09999e-19
1.4888e-18
1.61807e-18
8.51596e-25
4.05528e-25
1.86148e-25
2.21055e-34
9.83507e-33
-7.80324e-34
-1.88502e-33
-3.54662e-34
-8.02207e-34
5.85481e-07
-4.58878e-07
2.2315e-06
-1.80977e-06
-3.29337e-11
-3.62827e-10
-3.08081e-24
-4.18752e-24
-1.18242e-06
0.0102229
0.00607641
0.00548652
-7.29192e-37
-7.03741e-07
-7.1632e-07
0.00337072
-1.50509e-34
2.28853e-05
8.69439e-06
1.13375e-25
5.25474e-26
-1.52567e-07
-4.23345e-36
0.00279885
-4.80296e-07
-3.08054e-07
-2.42495e-07
-6.70995e-07
-1.56174e-07
-5.7603e-07
-7.7865e-08
1.23327e-08
2.42786e-08
-1.64817e-08
2.62582e-08
2.14722e-08
2.35564e-08
3.74785e-08
1.98413e-08
3.78508e-08
1.47389e-08
3.36459e-09
1.22007e-09
9.40952e-09
-6.7993e-11
-6.34417e-10
-5.50775e-10
-6.39728e-10
-4.42e-10
-1.60768e-10
-8.326e-11
1.04211e-12
9.65999e-12
-7.17636e-10
8.01353e-12
6.19143e-12
2.04453e-12
9.60148e-13
4.22046e-12
3.33748e-13
-1.48612e-13
-1.37736e-13
2.58265e-12
1.44291e-08
-7.23677e-14
-4.53111e-14
3.41078e-12
0.00358897
0.00200106
-3.59888e-24
-8.7101e-24
6.65672e-05
3.63766e-05
0.000106534
2.5636e-35
3.12975e-26
6.33074e-26
1.4644e-26
2.3106e-26
6.50124e-27
-7.21721e-15
-1.3815e-15
-1.68994e-11
-1.84588e-11
0.0020493
0.00115061
-2.4618e-24
-1.06196e-23
6.21121e-35
9.6586e-27
1.96839e-15
1.5558e-15
1.13314e-15
1.11048e-15
1.53213e-15
7.10712e-16
1.71844e-16
5.9432e-17
1.31231e-15
3.50303
4.23791
3.93284
4.23715
3.95591
4.00237
3.77917
3.43379
3.30556
2.63444
2.59097
1.78965
2.08252e-23
-6.97495e-17
-2.17802e-17
-0.00337133
0.000120317
8.11267e-05
1.67609e-05
4.75735e-05
5.84484e-06
2.42156e-05
8.26644e-05
5.2215e-05
1.0467e-05
2.88821e-05
7.44583e-05
4.7743e-05
5.79314e-05
5.44415e-05
1.44634e-29
2.58301
-9.16858e-05
-9.72813e-07
-2.0546e-17
-1.76105e-17
-3.17758e-17
-1.525e-17
8.53315e-27
-9.15491e-18
-5.23728e-18
1.97111e-15
1.01971e-35
2.74424e-27
-1.08604e-17
-7.85614e-18
1.79978
1.0612
-3.74312e-12
-5.86477e-12
-0.00041824
-0.000163929
2.83714e-05
0.00113069
0.000641673
-5.48267e-25
-3.17323e-25
-2.88056e-25
-4.92645e-26
-7.73271e-26
-1.26197e-27
-1.09556e-26
1.88304e-27
2.50863e-29
8.67945e-28
5.2744e-28
2.08863e-28
2.30943e-28
2.69822e-29
5.34094e-29
-8.06721e-31
8.19609e-28
6.7024e-30
5.96581e-29
1.33648e-29
3.56913e-29
-1.53249e-30
-2.42841e-30
1.48352e-29
7.38967e-30
-5.51216e-31
-2.53046e-31
8.6614e-30
-2.99495e-29
1.35348e-32
6.03294e-32
2.14313e-30
-5.90663e-29
2.46484e-32
-1.49472e-11
-7.07935e-12
-9.92534e-12
1.93799e-32
-8.79185e-25
-7.57514e-24
2.36146e-35
2.11877e-18
-3.06175e-18
-3.00764e-18
-1.73129e-18
-6.89698e-19
-5.40454e-19
-9.64614e-20
-1.0675e-19
-2.56771e-21
-1.22575e-20
3.58992e-21
4.78606e-22
1.90437e-21
7.59919e-22
-1.33308e-21
5.46577e-22
1.9898e-22
-2.06101e-21
-1.09571e-22
-2.05091e-21
-2.54555e-22
-1.5727e-21
-2.77545e-22
-9.53087e-22
-2.24933e-22
-4.49495e-22
-2.55887e-24
-1.44574e-22
-1.51448e-22
-7.51609e-23
-2.93896e-23
-2.71141e-23
2.44382e-23
-7.60403e-22
-7.37983e-24
4.2466e-23
3.48549e-22
2.40435e-22
4.05552e-23
1.38794e-22
-2.06976e-23
-5.15187e-19
4.4053e-22
1.41334e-22
6.77359e-23
3.23743e-23
2.44263e-23
-8.94791e-24
6.73686e-24
-2.09621e-23
-6.43373e-12
-2.36162e-12
9.21693e-23
3.84468e-27
5.1894e-25
-2.05404e-23
-1.38395e-22
-8.12423e-23
2.1734e-33
-1.49801e-23
-4.18455e-23
-1.34635e-22
-4.19675e-23
-6.43622e-19
-5.83986e-20
-2.75133e-18
1.31679e-19
-1.14952e-18
1.37027e-19
9.78684e-20
5.47279e-20
1.05716e-20
2.86446e-21
2.90727e-20
5.51309e-23
-1.22674e-21
-7.94176e-22
-6.69504e-22
-4.54684e-22
-1.26843e-22
-4.2761e-23
-2.33685e-22
-1.07729e-23
7.29585e-24
4.73518e-24
-4.74103e-25
2.86771e-24
9.85786e-25
4.41458e-25
-5.7263e-30
-6.501e-29
-1.81307e-23
-1.02005e-23
2.52628e-23
3.81678e-23
3.34292e-22
2.10989e-22
3.16914e-23
1.18648e-22
5.18331e-22
2.22054e-22
5.95709e-23
8.58003e-23
1.62838e-22
3.28776e-23
2.63274e-23
-5.5749e-24
6.44773e-24
-1.25067e-23
-1.21694e-22
-7.35785e-23
-1.02651e-23
-4.01952e-23
-2.0254e-22
-9.28972e-23
-3.57626e-22
-1.36452e-22
-3.96748e-23
-4.73198e-23
-1.58248e-23
-1.46306e-23
1.38723e-34
1.63379e-32
-1.43213e-12
3.86328e-13
6.8638e-13
3.56256e-13
2.92107e-13
5.43198e-14
1.12079e-14
-9.94003e-15
-1.31488e-14
-5.70397e-15
-3.50535e-15
-3.87036e-16
1.92572e-16
1.92213e-16
2.02749e-16
3.93545e-16
1.42724e-16
4.35953e-16
2.23005e-17
6.51207e-17
3.29641e-16
1.97678e-24
-2.96508e-08
5.65721e-05
3.78475e-24
-1.12201e-29
-4.188e-29
1.10333e-27
5.26728e-35
2.74306e-34
2.01834e-30
0.00060288
0.000958684
0.000346553
0.000338745
0.000184056
-7.87433e-34
7.54991e-33
-6.40349e-34
7.86119e-18
1.5442e-16
3.11239e-25
-2.93599e-24
2.87565e-25
-3.48184e-37
-1.97414e-37
-2.0185e-18
-3.16271e-26
-3.01075e-26
-5.76279e-24
-3.64741e-24
-0.000897121
-0.000438643
-3.64031e-22
-0.000910857
1.10225
1.74362
0.542499
6.71049e-22
8.23461e-23
2.38489e-23
-1.82015e-23
-5.01469e-23
-1.69644e-23
-2.1265e-23
-2.84413e-24
-3.2978e-24
-6.47081e-26
-3.78586e-25
9.57676e-26
7.34901e-27
4.62807e-26
1.81995e-26
1.19086e-26
-1.21252e-29
-0.0091701
-3.30421e-37
-1.46517e-37
-1.00467e-24
1.0965
1.61916
-4.37907e-12
7.28393e-12
-1.96462e-24
-7.10522e-25
2.29743e-24
2.13491e-24
1.45945e-27
-2.46592e-26
-1.18944e-26
1.79756e-26
1.32936e-24
8.42018e-24
4.02662e-24
7.09902e-25
1.83041e-24
0.000167862
7.93328e-27
1.16626e-34
5.16454e-34
-7.34625e-29
0.0157371
2.03383e-08
5.16503e-08
-1.232e-10
5.36385e-05
0.000181696
3.0583e-07
9.4069e-19
2.14061e-05
-2.11408e-26
8.28358e-11
-4.83188e-05
-0.000193134
-3.21536e-06
-7.31995e-05
-1.35959e-26
-1.10161e-21
0.476048
7.69623e-28
3.1246e-28
2.13107e-28
-2.51901e-27
3.02465e-24
9.38666e-25
1.96612e-24
6.89918e-25
-7.36157e-25
-6.18169e-26
-3.60608e-24
-9.04503e-25
-5.46256e-24
-1.48624e-24
-4.5767e-24
-1.51236e-23
-5.93325e-24
-1.31584e-23
2.59457e-23
1.1552e-22
5.31761e-24
5.72534e-23
1.46911e-23
6.82968e-23
1.8578e-23
5.13765e-23
1.53941e-23
2.72435e-23
7.66544e-23
8.7115e-24
-2.58217e-23
-1.59225e-22
4.94349e-24
-3.77064e-22
-1.49339e-21
-1.68043e-21
-6.1044e-21
1.89498e-26
-4.52555e-22
-0.0177508
8.56194e-09
-0.00312751
1.04679
1.44197
0.956926
1.23238
0.838544
1.01295
-6.01033e-22
0.000487279
0.000687161
9.9437e-06
-2.14598e-05
-8.4602e-34
-1.67152e-34
7.42419e-25
5.6488e-25
-2.26319e-23
-9.42005e-24
-1.64768e-17
3.8144e-17
-1.10054e-17
-2.40367e-34
-2.51854e-38
-8.63889e-39
9.17088e-05
9.7147e-05
2.60106e-34
1.85121e-27
-2.08342e-27
-1.71355e-24
8.7348e-29
5.8276e-29
-0.00132101
-1.43869e-21
-4.0586e-22
0.705393
-0.00017836
-7.49414e-05
8.72375e-20
-3.24825e-18
-4.54176e-26
3.47203e-25
7.98507e-25
0.191761
0.146594
1.26307e-12
2.01643e-23
-8.28637e-23
-6.51773e-23
-4.96576e-28
0.799966
-0.0182733
-0.0125683
0.000330976
0.000399662
8.34521e-25
1.59819e-25
3.36294e-25
2.41096e-29
1.57417e-29
3.81409e-39
1.84644e-39
0.0377045
0.0194671
-2.58003e-05
-2.19205e-12
1.73456e-11
-2.47264e-21
4.85732e-05
-1.51526e-35
1.84722e-27
3.26637e-27
7.76676e-05
3.36688e-28
9.68027e-06
-7.96884e-18
-1.79012e-18
1.05632e-35
4.97621e-05
-2.32988e-12
-0.00472424
-0.00917289
-0.0088267
4.02712e-18
2.48837e-22
7.02119e-26
1.37285e-25
-4.76749e-35
-0.000280164
-0.000137145
-8.66893e-22
-2.63229e-22
-2.7028e-28
0.569787
-0.00951376
-0.0115676
-0.00566671
-0.00351856
5.96152e-25
2.30787e-25
1.39308e-28
-9.97618e-29
5.64322e-26
1.31442e-27
8.867e-28
2.49901e-05
6.0113e-36
3.417e-29
7.70504e-40
3.52128e-40
8.59155e-40
1.60087e-40
3.67998e-40
7.50748e-39
7.41725e-26
2.01542e-28
7.91388e-29
0.609311
-1.67795e-11
4.86014e-12
7.53912e-17
7.16241e-41
1.54715e-40
2.18956e-43
5.44803e-26
8.72428e-26
6.57218e-30
4.20123e-30
9.50801e-30
-2.45674e-17
-2.87593e-17
-6.19662e-15
-1.63897e-22
-2.06724e-22
-2.81753e-23
-1.66317e-22
2.48868e-09
-5.76218e-21
-2.17777e-20
-2.16685e-20
-7.64671e-20
-7.91632e-20
-2.62121e-19
-2.83049e-19
-8.70957e-19
-9.92561e-19
-2.78198e-18
-3.40443e-18
-8.67661e-18
-1.14439e-17
-2.63722e-17
-3.76632e-17
-7.80306e-17
-1.20575e-16
-2.26195e-16
-3.69538e-16
-6.4361e-16
-1.09989e-15
-1.75793e-15
-2.37323e-16
1.76245e-16
-4.48218e-15
3.6513e-15
1.28341e-14
4.63261e-14
2.0396e-14
1.61077e-13
1.91657e-13
6.13998e-13
5.42997e-13
1.93052e-12
1.81509e-12
5.45633e-12
4.4108e-12
1.27656e-11
1.61021e-11
3.62431e-11
2.54415e-11
6.96342e-11
1.00893e-10
1.86805e-10
1.15858e-10
2.99483e-10
4.9092e-10
7.57715e-10
1.26312e-09
1.87527e-09
1.01675e-09
2.41778e-09
4.53701e-09
5.61515e-09
1.07247e-08
1.27278e-08
1.18905e-09
-4.20842e-16
-4.76327e-18
2.47596e-08
2.82029e-08
-3.1367e-18
1.33479e-08
2.85791e-08
6.11411e-08
5.96578e-08
2.53474e-08
5.0431e-08
1.21262e-07
9.74546e-08
2.39764e-07
1.82674e-07
4.60487e-07
3.3172e-07
8.58224e-07
5.82675e-07
1.54999e-06
9.88402e-07
-1.70004e-19
2.70939e-06
1.88409e-08
1.61597e-06
1.98798e-07
1.92879e-08
5.42051e-07
4.5764e-06
2.54072e-06
7.70142e-07
-0.00151276
0.000178151
0.000171144
6.56263e-36
2.47532e-05
-2.83476e-19
2.34046e-19
2.1063e-26
-1.17148e-24
1.76973e-30
1.25155e-05
1.00862e-36
5.99771e-28
-4.87354e-28
-8.44587e-29
1.6576e-28
6.29899e-13
2.52292e-11
9.34926e-11
7.68058e-11
1.23197e-10
-2.9029e-21
-1.96523e-28
0.00158801
0.762695
9.99941e-22
0.560729
-0.00918301
-0.0125175
7.91664e-16
-0.0142134
-0.00669058
9.26278e-25
4.96441e-27
1.7796e-27
2.85563e-29
6.45362e-28
3.73308e-29
1.14831e-28
-5.51736e-31
-0.000332448
-0.000178268
-6.1493e-05
-8.89553e-05
-2.46755e-05
-4.18144e-05
-3.86305e-22
-1.26321e-22
0.555243
0.442933
-1.92766e-26
0.163191
9.71636e-06
5.06575e-06
2.72197e-06
2.01529e-12
-7.80407e-23
-3.91961e-23
-2.26004e-23
-1.18192e-23
-6.372e-24
-3.51513e-24
-1.74003e-24
-1.03033e-24
-4.6477e-25
-2.9575e-25
-1.21979e-25
-8.30594e-26
-3.1415e-26
-2.28386e-26
-3.30564e-26
-7.93584e-27
-6.07236e-27
-1.16317e-26
-3.29864e-27
-3.85456e-24
-1.97127e-27
-3.97586e-27
-1.32554e-27
-2.82357e-14
1.61478
2.69365e-19
2.24677e-19
1.67359e-19
2.42939e-19
4.65799e-20
4.4238e-06
-6.48472e-06
-0.000146544
0.0127844
-7.2604e-31
0.647924
6.49837e-20
4.63393e-11
-3.04814e-10
1.10337e-06
2.70408e-07
3.8309e-06
2.48615e-30
5.30734e-30
-6.86664e-17
-3.77408e-17
-9.58184e-17
1.09266e-20
7.12078e-21
-7.24471e-23
3.20448e-41
6.59664e-41
1.17832e-05
8.85075e-20
-4.3051e-29
1.79941e-28
-1.15492e-27
-3.93132e-29
3.57421
1.72463e-14
7.98034e-12
7.36976e-12
-0.00851733
-0.00251497
-0.00149347
-9.93651e-05
-0.00800079
-0.012709
4.29153e-20
2.18149e-20
1.39677e-22
9.85973e-07
6.41657e-08
-8.78236e-06
-1.78722e-05
1.19688e-05
6.09989e-06
7.10166e-05
5.36357e-38
3.05112e-36
-1.09961e-37
9.1436e-24
-8.42345e-24
2.22623e-19
3.13583e-19
-2.279e-30
-3.29457e-29
-1.22082e-27
8.4374e-09
4.3816
-0.000618234
-1.14287e-26
-1.0091e-20
-5.25145e-22
-3.29985e-29
-1.2776e-30
-1.58196e-30
-0.000116521
0.000114893
0.623191
0.428895
-7.5937e-23
-5.48001e-10
-2.68206e-09
3.75657e-06
3.32005e-07
4.97452e-08
6.08476e-17
5.90109e-27
1.99718e-27
1.45007e-41
2.82512e-41
-1.10244e-40
-5.4722e-41
-1.16604e-39
-5.17798e-40
-1.2936e-39
-5.56062e-40
8.01428e-39
3.38025e-39
2.05112e-38
8.45635e-39
-8.19336e-39
-3.5674e-39
-2.85701e-37
-1.14541e-37
-5.07604e-37
-1.99112e-37
6.66078e-37
2.80392e-37
7.52149e-36
2.94716e-36
1.16467e-35
3.01473e-35
-3.78714e-35
-1.56727e-35
-3.73659e-34
-1.42716e-34
-5.34837e-34
-1.42349e-33
1.36763e-33
5.11869e-34
1.34404e-32
3.69959e-32
5.14739e-32
1.8203e-32
7.08861e-33
6.81418e-33
-2.25584e-31
-7.38795e-31
-1.83605e-30
-7.26673e-31
-2.27152e-30
-4.78844e-30
1.19814e-29
3.93532e-30
7.67857e-29
1.93508e-28
2.98581e-28
1.12516e-28
-1.87733e-28
-5.88922e-28
-5.97713e-29
-5.72601e-27
-1.57418e-26
-2.16524e-26
-6.05919e-26
7.17629e-27
5.23693e-26
7.9984e-25
2.50226e-24
2.44353e-25
3.53914e-24
9.91439e-24
3.7702e-24
4.90328e-24
-8.26198e-23
-2.71224e-22
-5.50321e-22
-1.43697e-21
-2.09283e-22
-8.67865e-22
-3.81238e-21
-2.41844e-21
-4.09165e-21
2.25115e-25
-1.02209e-20
-4.77747e-21
7.60072e-20
2.44056e-19
8.52986e-21
7.55426e-19
1.23161e-18
3.12636e-18
2.1962e-18
7.95158e-18
3.19514e-18
3.11157e-18
1.91562e-17
-1.04287e-17
-1.64952e-16
-4.90593e-16
-7.25399e-17
-1.37016e-15
-1.9274e-15
-4.63148e-15
-2.10213e-15
-2.12594e-15
-2.83423e-16
2.60546e-14
7.90988e-14
8.18602e-15
5.36585e-15
2.26982e-13
3.90533e-13
8.90366e-13
7.26352e-13
1.22215e-12
6.1438e-13
-2.4822e-12
-8.31865e-12
-2.49967e-11
-6.21937e-11
-2.5039e-11
-1.41902e-10
-1.61094e-10
-3.23638e-10
-3.1031e-10
-5.63757e-10
1.93307e-10
1.17235e-09
5.19326e-09
1.33861e-08
-9.34645e-12
-6.60764e-10
2.10489e-08
4.40242e-08
3.29812e-08
9.59642e-09
4.13988e-08
7.04894e-08
3.45296e-38
3.49422e-30
3.66625e-12
2.73864e-12
1.22771e-12
5.00407e-12
2.52639e-13
2.41907e-12
-1.66013e-13
8.21175e-13
-2.09788e-13
-3.9621e-15
-1.24296e-13
-1.72995e-13
-2.38505e-13
-1.04086e-13
-1.99633e-13
3.62563e-13
-1.7616e-13
3.02802e-12
1.00515e-12
8.45097e-12
4.62126e-12
1.28718e-11
9.74418e-12
-1.37902e-12
1.16432e-11
-9.5113e-11
-2.23612e-11
-3.07372e-10
-1.39959e-10
-5.3724e-10
-3.33672e-10
-4.36309e-10
-4.54059e-10
1.19416e-20
8.06601e-28
3.43567e-27
1.13113e-27
7.69583e-29
-3.97658e-28
-2.92568e-29
7.60997e-27
-1.13425e-28
-1.83717e-29
1.42721e-28
2.78022e-29
6.68397e-24
2.62939e-22
1.11253e-19
1.15023e-18
2.1838e-16
0.362038
0.28825
1.36042e-30
2.73278e-30
1.0408e-19
4.80105e-20
5.78942e-05
0.000395477
-2.3147e-17
-1.46189e-20
3.23248e-19
1.4865e-19
3.46417e-19
-2.28081e-23
-0.0151923
1.75649e-13
-2.99657e-21
-5.53916e-20
-3.6077e-22
-1.64832e-22
2.22648e-30
4.31814e-30
1.0017e-28
2.13254e-19
1.44344e-19
-2.08678e-13
-2.53756e-06
-6.88679e-06
-4.76622e-11
-3.70184e-37
-1.1445e-38
9.22553e-24
3.08979e-24
1.50618e-19
3.20717e-19
3.41613e-20
-1.35068e-28
-9.34678e-28
-4.45814e-38
-1.0886e-07
-1.70459e-07
5.59963e-12
2.13803e-05
2.81064e-05
5.64157e-06
2.89957e-06
-7.65515e-31
-1.61161e-31
-4.28384e-31
1.83859e-09
1.52766e-10
-3.64443e-27
-1.27823e-27
-5.47858e-28
-2.67945e-28
-2.28929e-11
-4.52985e-20
4.86408e-22
3.91168e-25
1.90983e-28
4.30354e-29
4.82172e-30
9.48401e-30
4.22936e-29
9.75036e-30
-0.00369326
-1.8416e-15
4.83312e-13
-2.55218e-09
-6.00467e-09
-6.90547e-10
-1.28723e-36
3.01193e-08
-0.00631605
-0.011413
-0.00248331
-0.0147345
-0.0149304
-0.00424715
-0.0124915
0.0453708
0.0162398
0.177986
0.102607
-0.00116431
0.0514036
-7.26903e-20
-1.73801e-19
-1.13981e-08
-1.04494e-07
-7.76269e-38
-2.33939e-40
2.90455e-19
-5.43619e-19
1.43907e-26
6.24204e-26
0.00020721
0.00019094
1.62375e-27
4.28223e-28
7.57255e-27
-3.4193e-26
-2.46799e-27
9.19948e-22
3.81903e-21
-9.15579e-27
-4.79316e-05
-1.70988e-08
-2.30334e-09
3.22269e-36
2.11002e-35
-7.89872e-36
-1.51121e-35
-2.77279e-36
-6.17347e-36
0.432506
0.281767
0.284597
0.00298033
-3.40583e-21
-2.51967e-21
-1.66824e-21
0.00023025
-6.10564e-20
4.9805e-19
2.92141e-24
-3.86155e-15
-4.95841e-16
-2.7614e-14
-1.45068e-14
-6.48848e-14
-4.19672e-14
-6.0742e-14
-5.7057e-14
2.83715e-13
-2.4379e-14
-4.30632e-14
-1.33513e-14
-2.89472e-14
-6.84555e-15
-1.76308e-14
-2.17548e-14
-2.85493e-15
-3.21327e-11
0.000136072
5.82263e-05
9.70023e-05
3.82624e-05
6.00066e-05
2.16204e-05
3.13316e-05
1.00492e-05
1.28057e-05
1.40974e-05
3.21889e-06
2.75293e-06
1.41027e-05
1.39629e-06
1.24785e-05
-1.32136e-06
7.7296e-06
-5.98894e-06
-3.49009e-06
-5.47602e-06
-1.17434e-05
-7.63557e-06
-1.82566e-05
-9.4205e-06
-2.65245e-06
-2.24267e-06
-9.73624e-06
-1.37493e-06
1.5019e-07
6.74215e-07
3.93686e-07
5.17538e-07
1.76277e-07
1.56941e-07
-8.58066e-06
5.83776e-07
1.14197e-07
4.63088e-09
-1.95399e-08
1.58969e-07
-1.54267e-08
-1.9311e-08
5.43007e-07
0.20413
0.167054
-1.04508e-12
-2.64697e-13
6.86937e-31
3.44827e-31
6.44767e-27
2.07199e-27
6.47353e-28
6.40854e-28
2.02247e-28
1.90063e-28
1.20858e-41
6.07183e-29
-6.34123e-09
-5.23319e-09
-2.01051e-08
-3.28193e-09
3.05612e-38
2.14292e-07
1.02463e-10
8.20053e-10
8.17506e-31
5.6391e-31
2.33432e-32
-3.06328e-38
-3.49744e-22
-1.08877e-22
-2.0901e-28
2.06197e-28
-4.20846e-07
-2.33953e-06
8.16054e-07
-9.6541e-15
-1.00408e-15
2.61165e-16
2.07682e-16
1.49582e-16
7.79632e-17
8.87763e-34
-4.09042e-33
-2.70454e-25
-1.89634e-25
7.67785e-09
2.95912e-09
-3.08102e-10
7.91221e-10
8.22127e-09
3.68714e-09
1.31208e-08
1.19862e-11
0.0180549
1.67501e-17
4.81813e-18
1.96272e-21
3.35189e-22
-0.0100813
0.019714
-8.53529e-10
1.28903e-09
5.07143e-10
4.58536e-10
1.39495e-09
3.36765e-10
3.07761e-11
-2.26836e-11
1.75067e-10
-5.68514e-11
-2.7439e-11
-2.51822e-11
-6.77924e-11
-2.01278e-11
-2.75046e-12
6.08858e-14
-1.18835e-11
1.86337e-12
-4.33146e-12
2.48841e-12
1.20262e-12
2.34653e-12
8.16163e-13
5.1202e-13
2.12068e-14
-4.70881e-14
4.145e-12
-3.66965e-14
-3.18999e-14
-7.13231e-14
-2.49592e-14
-4.32059e-15
-1.01185e-15
-1.61006e-14
9.21652e-16
9.27446e-16
-0.00148164
-0.000198443
2.01915e-19
8.73179e-20
-3.114e-19
-4.60411e-19
-3.62557e-14
-8.5663e-08
-4.8659e-08
-1.0751e-11
6.46557e-20
2.39169e-19
-4.37665e-37
-1.14646e-36
7.30193e-06
1.05716e-05
2.59837e-06
1.34851e-06
1.37041e-06
6.39595e-07
1.03106e-24
-6.17451e-26
5.40442e-29
1.64109e-28
4.13674e-23
3.38786e-23
5.72265e-07
-7.69975e-22
-5.37972e-29
3.67005e-28
3.02323e-27
2.07566e-27
3.40563e-29
1.29385e-30
2.96957e-06
-1.30057e-32
-4.63358e-32
-7.47275e-15
1.26971e-09
8.72688e-30
1.55221e-08
4.56057e-06
1.07517e-29
-2.64958e-07
-9.54954e-08
2.70986e-20
-2.10053e-24
-0.0130109
0.00214773
0.096859
0.0474283
-0.00619557
0.0188236
7.59632e-21
2.30262e-21
1.75559
2.82935e-20
1.14082e-20
1.02116e-19
4.97824e-20
3.60197e-19
2.02081e-19
1.24122e-18
7.80688e-19
7.27826e-13
2.40476e-12
3.91869e-12
4.78138e-12
4.56978e-12
-2.57525e-11
-8.17727e-12
-1.14332e-10
-1.94929e-10
-3.10086e-10
-3.91343e-10
4.13982e-10
1.5401e-09
7.6594e-09
1.29119e-08
2.25414e-08
2.96589e-08
3.29812e-09
-4.38463e-08
3.96361e-09
-6.29261e-11
-3.51443e-07
-6.58272e-07
-1.65127e-07
-1.45246e-07
-1.07277e-06
-1.92331e-06
-2.42842e-06
-1.61209e-06
4.15248e-18
2.87666e-18
1.35663e-17
1.01737e-17
4.28105e-17
3.48086e-17
1.28792e-16
-8.69566e-22
-6.27181e-09
7.2039e-31
2.18714e-32
3.27733e-19
-1.06343e-38
-3.3243e-39
3.59223e-28
1.13058e-27
2.64175e-27
5.94019e-28
-3.88125e-34
-1.19735e-31
-2.34557e-37
4.22037e-28
-2.39499e-28
-5.24429e-27
-4.71038e-27
-5.16456e-28
-3.1742e-27
-1.48332e-06
9.81833e-07
6.23056e-26
2.54481e-25
-5.31264e-26
-1.00999e-31
-4.70557e-32
6.46498e-31
4.30703e-21
1.63912e-20
0.176259
0.182215
-6.86436e-10
-1.83652e-29
-9.0347e-28
0.440856
0.140615
0.0747725
-1.46638e-08
-6.0643e-09
-2.78666e-18
-1.89402e-18
0.149006
-8.91662e-24
-3.57299e-09
-2.67611e-09
-8.39916e-09
-1.30888e-13
-8.1345e-14
-3.912e-10
1.16055e-16
3.76073e-16
-4.59134e-08
-2.13872e-08
4.98582e-38
0.101504
0.0857761
0.131237
4.5323e-19
-1.10104e-18
-1.13774e-18
3.18964e-31