/*--------------------------------*- C++ -*----------------------------------*\
  =========                 |
  \\      /  F ield         | OpenFOAM: The Open Source CFD Toolbox
   \\    /   O peration     | Website:  https://openfoam.org
    \\  /    A nd           | Version:  6
     \\/     M anipulation  |
\*---------------------------------------------------------------------------*/
FoamFile
{
    version     2.0;
    format      ascii;
    class       volScalarField;
    location    "14688000";
    object      Cw;
}
// * * * * * * * * * * * * * * * * * * * * * * * * * * * * * * * * * * * * * //

dimensions      [1 -3 0 0 0 0 0];

internalField   nonuniform List<scalar> 
11831
(
0
0
0
0
0
0
0
0
0
0
0
0
0
0
0
0
0
0
0
0
0
0
0
0
0
0
0
0
0
0
0
0
0
0
0
0
0
0
0
0
0
0
0
0
0
0
0
0
0
0
0
0
0
0
0
0
0
0
0
0
0
0
0
0
0
0
0
0
0
0
0
0
0
0
0
0
0
0
0
0
0
0
0
0
0
0
0
0
0
0
0
0
0
0
0
0
0
0
0
0
0
0
0
0
0
0
0
0
0
0
0
0
0
0
0
0
0
0
0
0
0
0
0
0
0
0
0
0
0
0
0
0
0
0
0
0
0
0
0
0
0
0
0
0
0
0
0
0
0
0
0
0
0
0
0
0
0
0
0
0
0
0
0
0
0
0
0
0
0
0
0
0
0
0
0
0
0
0
0
0
0
0
0
0
0
0
0
0
0
0
0
0
0
0
0
0
0
0
0
0
0
0
0
0
0
0
0
0
0
0
0
0
0
0
0
0
0
0
0
0
0
0
0
0
0
0
0
0
0
0
0
0
0
0
0
0
0
0
0
0
0
0
0
0
0
0
0
0
0
0
0
0
0
0
0
0
0
0
0
0
0
0
0
0
0
0
0
0
0
0
0
0
0
0
0
0
0
0
0
0
0
0
0
0
0
0
0
0
0
0
0
0
0
0
0
0
0
0
0
0
0
0
0
0
0
0
0
0
0
0
0
0
0
0
0
0
0
0
0
0
0
0
0
0
0
0
0
0
0
0
0
0
0
0
0
0
0
0
0
0
0
0
0
0
0
0
0
0
0
0
0
0
0
0
0
0
0
0
0
0
0
0
0
0
0
0
0
0
0
0
0
0
0
0
0
0
0
0
0
0
0
0
0
0
0
0
0
0
0
0
0
0
0
0
0
0
0
0
0
0
6.9417e-25
1.20497e-19
-3.07667e-19
-7.33418e-22
-6.66734e-23
2.66769e-24
-1.92265e-16
-7.10331e-24
7.44183e-27
-2.89101e-21
2.88209e-16
-1.10798e-22
-5.5066e-14
-1.05805e-26
-8.29036e-27
6.62889e-22
-3.46232e-26
6.2273e-20
4.2651e-14
2.48205e-29
-1.29206e-28
-2.29684e-22
-2.95055e-12
-5.60814e-31
5.4606e-32
-8.44986e-20
1.82955e-12
-1.45174e-29
2.90072e-22
-5.95326e-34
-2.79045e-30
2.48251e-11
1.54016e-20
3.78423e-32
1.04188e-34
-6.58858e-12
-9.17146e-22
3.43334e-37
-4.25632e-32
-6.20846e-11
2.21025e-20
-3.85926e-35
-2.55032e-37
1.95114e-11
2.5252e-22
8.01455e-40
-8.21969e-35
4.30673e-11
-7.36578e-26
-5.92523e-18
1.01987e-21
9.20365e-21
5.58104e-21
3.03454e-37
1.3606e-21
6.453e-24
-1.94792e-17
6.07234e-23
2.41804e-24
-2.22931e-20
-1.32892e-22
-2.64369e-39
6.29383e-25
-5.67089e-15
2.62804e-11
-4.67327e-28
3.74856e-15
9.12412e-25
5.76116e-22
-2.39799e-39
3.81829e-41
1.07902e-11
1.25645e-22
-1.70828e-42
8.32331e-37
4.70463e-11
-6.80972e-21
5.77905e-28
-3.14162e-20
-6.74101e-31
4.60699e-32
2.07583e-21
2.38009e-28
-9.01192e-22
-3.87826e-27
4.91697e-13
-2.77998e-33
-1.37341e-30
-3.75788e-13
9.83743e-13
4.19667e-29
5.53176e-13
2.63559e-41
6.64258e-23
3.39212e-12
-4.27125e-43
3.28381e-23
-3.63524e-39
1.83011e-45
1.48125e-11
-9.04645e-38
-1.85662e-22
2.64331e-20
-6.73593e-34
2.21598e-22
3.55264e-41
-1.30673e-21
1.61375e-35
1.22126e-20
3.81824e-36
2.06707e-21
-1.54965e-38
-7.10234e-26
1.17597e-18
-2.74522e-17
7.75748e-25
3.97789e-26
1.52453e-20
3.51237e-22
1.64169e-18
-6.01936e-24
-5.09534e-20
4.15686e-22
-3.79955e-26
-2.09073e-21
-6.56017e-20
2.08793e-21
1.0378e-20
-7.9116e-28
4.94957e-20
-1.47065e-21
1.70558e-33
-1.03914e-29
1.16275e-13
2.52982e-15
6.29331e-24
2.33133e-22
4.68372e-23
-2.80271e-14
-7.2257e-25
1.05669e-30
2.29734e-12
2.72946e-13
6.99215e-38
-2.10673e-22
-3.36505e-40
2.34429e-36
4.54379e-28
-5.75146e-36
1.7341e-11
1.81791e-12
-5.11538e-24
2.01829e-11
-2.83139e-20
-3.27173e-25
-3.58996e-16
5.12643e-26
-8.46375e-33
6.2973e-15
-1.23474e-13
1.09251e-29
-1.43866e-16
-5.81511e-23
6.80036e-11
2.32685e-41
1.28048e-23
5.25209e-13
6.72907e-46
1.02153e-24
6.89498e-25
-4.2081e-24
-1.17795e-23
-3.2667e-23
-7.86084e-23
-8.89423e-23
-1.97142e-22
4.21685e-23
2.93544e-22
1.78176e-21
5.01683e-21
7.81035e-21
1.82626e-20
1.37667e-20
4.30469e-20
2.74142e-20
4.60132e-20
-1.62541e-19
-4.87092e-19
-1.35163e-18
-3.37454e-18
-3.64071e-18
-8.4268e-18
-2.83761e-18
-2.41293e-18
3.96178e-17
1.13129e-16
2.46444e-16
5.85392e-16
3.09754e-16
1.32663e-15
8.25387e-16
2.90793e-15
2.14111e-15
6.33611e-15
5.34754e-15
1.37632e-14
1.25753e-14
2.94901e-14
2.75574e-14
5.93819e-14
5.81667e-14
1.06073e-13
1.19742e-13
1.74746e-13
2.44696e-13
2.5733e-13
4.96406e-13
2.84378e-13
-1.89057e-12
-5.19395e-12
-1.71176e-13
-1.31348e-11
-2.13244e-12
-3.15063e-11
-5.75976e-11
-1.13778e-10
-7.27971e-11
-2.17023e-10
-2.02381e-10
-3.13108e-10
-4.06527e-10
-4.35322e-10
7.31132e-10
2.30722e-09
7.02158e-09
1.54508e-08
6.2949e-09
3.27803e-08
1.54838e-08
6.68155e-08
7.83251e-08
1.3891e-07
1.28368e-07
2.4029e-07
1.30648e-07
1.21077e-07
3.82723e-07
-9.07664e-08
-1.62307e-06
-3.89085e-06
-7.70584e-07
-8.66811e-06
-1.61743e-05
-3.06802e-05
-3.82747e-05
-6.3316e-05
-5.61204e-05
-0.000101695
-8.46491e-05
-0.000111566
-0.000159773
-0.00013067
-0.000241375
-9.52128e-05
0.000476002
0.00120185
9.48435e-05
0.00268792
0.00580994
0.0109014
0.00556307
0.0196715
0.0294669
0.0492323
0.062057
0.0342197
0.0797547
0.0574823
0.125305
0.0933532
0.190978
0.14671
0.282396
0.223264
0.405213
0.329173
2.71253e-15
0.564459
0.470343
0.763606
0.813399
0.651455
0.350523
0.49933
0.230031
0.339648
1.04622
1.02147
0.128966
1.2645
1.14162
0.200269
0.0577418
1.36602
1.14353
0.0976652
0.0164193
1.31381
0.993131
0.0345932
1.08876
0.735315
-0.00198133
0.00363501
0.76571
0.457394
-0.00691284
-0.00693367
0.451007
0.23432
-0.0068882
0.215786
0.0937237
-0.00782987
-0.00510432
0.0785607
0.0257237
-0.006377
0.0179358
0.00209774
-0.00292481
-0.00402013
-0.000549893
-0.00272593
-0.00186205
-0.00245406
-0.00203913
-0.00166821
-0.00157755
-0.000863038
-0.0009073
-0.000340085
-0.000399758
-9.52333e-05
-0.000131606
-1.20387e-05
-2.73961e-05
6.33275e-06
1.07292e-06
6.50256e-06
4.76207e-06
4.41095e-06
3.76341e-06
2.02985e-06
2.03525e-06
6.58155e-07
7.82163e-07
1.32288e-07
-0.00123364
2.05689e-07
-0.00190536
-0.0051926
-5.87649e-05
5.63761e-08
-2.71003e-08
-0.00272614
-0.00629235
-0.000306648
-4.60789e-08
-3.32229e-08
-0.00365719
-0.00723192
-0.00461961
-0.00782153
-3.68103e-08
-1.40649e-08
-0.0054521
-0.00819049
-1.09656e-08
-1.90178e-09
-0.0060319
-0.00764169
-0.00635618
-0.00602719
-4.48629e-10
5.99468e-10
-0.00361892
-0.00650546
-0.00277791
-0.00580479
0.00243404
8.59205e-10
5.24203e-10
4.6523e-10
1.99172e-10
2.25896e-10
4.68769e-11
-0.00436791
0.00943496
1.4839e-10
7.01244e-11
-0.00202438
0.0178919
3.03901e-12
0.00135084
0.0271867
1.22059e-11
0.00552348
0.0364987
-3.30601e-12
-0.00268209
0.0101324
0.045007
-0.00336801
-9.20766e-13
0.0147825
0.0519879
0.119895
0.125148
0.247012
0.242197
0.419043
0.384568
0.596084
0.519363
0.730479
0.3413
0.439093
0.29329
-0.000107967
8.12384e-05
8.91204e-05
7.69115e-05
6.29498e-05
3.42432e-05
2.28877e-05
6.61069e-06
2.88135e-06
-8.56741e-07
-1.08502e-06
-9.64381e-07
-7.71427e-07
-3.8965e-07
-2.441e-07
-5.20164e-08
-1.55227e-08
1.52621e-08
1.42583e-08
1.02108e-08
7.3254e-09
1.14453e-08
2.70036e-09
1.41437e-09
-3.65447e-12
-1.54991e-10
-1.87336e-10
-1.47615e-10
0.36028
0.24432
-2.45855e-12
-7.18879e-11
-4.30272e-11
-6.60174e-12
-9.72093e-13
-1.07618e-10
-1.77329e-12
0.287315
0.197522
8.36033e-07
2.83978e-12
2.33276e-12
-1.10301e-12
-9.52709e-13
-1.89799e-13
-6.68736e-14
0.223068
0.155041
1.34993e-12
8.69808e-13
-1.07414e-12
2.03672e-13
3.14747e-14
5.22438e-14
1.91361e-13
6.83216e-14
0.168964
0.226926
0.118273
-3.7253e-14
-3.30288e-14
2.96489e-14
2.77249e-14
-2.91289e-14
6.75702e-15
3.19234e-15
-2.12815e-14
-1.38088e-14
-2.57024e-14
-8.49281e-15
-1.44054e-15
-3.70224e-16
-4.63744e-15
1.09072e-16
3.34989e-16
2.46535e-16
2.2528e-16
1.66044e-16
6.53398e-17
3.12348e-17
1.03091e-16
1.33309e-17
-2.42072e-18
-2.33385e-18
4.84009e-18
-1.85556e-18
-1.19042e-18
0.124836
0.0878522
9.36639e-19
-7.00982e-19
-1.50281e-19
-4.73703e-16
-1.09313e-15
0.0897806
0.0636566
0.0583139
0.0425626
0.0361574
0.0267304
-6.76056e-16
-6.49283e-16
5.95364e-16
0.0209087
-5.49773e-20
2.52086e-20
0.0156816
-1.65668e-16
-7.63778e-17
0.0450355
0.0112603
9.14272e-18
2.27384e-17
-4.9687e-18
2.85938e-17
3.87202e-17
1.25581e-17
1.96112e-20
1.21279e-20
-2.27082e-11
2.84501e-17
5.50525e-17
0.00858645
-0.00259354
-0.0038393
2.65911e-07
7.99088e-07
3.0047e-07
7.0084e-07
3.0626e-07
5.43365e-07
2.79777e-07
3.71146e-07
2.34155e-07
2.32141e-07
1.73738e-07
1.22751e-07
1.13642e-07
2.53335e-08
6.75347e-08
-5.81511e-08
3.40651e-08
-1.22784e-07
6.42459e-09
-1.64883e-07
-1.54899e-08
-1.84583e-07
-3.09779e-08
-1.85407e-07
-4.02651e-08
-1.69956e-07
-4.33932e-08
-1.44171e-07
-4.19027e-08
-1.14335e-07
-7.21593e-09
-3.70382e-08
-8.45405e-08
-3.03064e-08
-5.87008e-08
-2.31951e-08
-3.75794e-08
-1.65383e-08
-2.2484e-08
-1.10598e-08
-1.22504e-08
-6.83782e-09
-5.98023e-09
-6.00944e-09
-3.63928e-10
2.20647e-08
2.30286e-08
2.4605e-09
2.09948e-08
8.78929e-08
6.69657e-08
1.7461e-08
4.87761e-08
1.54869e-07
1.0426e-07
3.41399e-08
6.80076e-08
-5.78141e-09
2.30478e-08
4.30568e-08
1.13443e-07
6.81401e-08
2.64973e-08
3.98968e-08
9.32792e-08
5.22675e-08
1.11881e-07
6.02632e-08
2.86231e-08
3.17874e-08
6.19048e-08
3.16627e-08
1.64209e-08
1.59199e-08
8.32191e-09
7.86026e-09
4.14238e-09
3.80671e-09
5.79498e-08
2.02821e-09
1.80767e-09
9.75876e-10
8.42159e-10
1.44122e-09
6.49965e-10
3.8504e-10
2.87781e-10
4.47621e-10
1.72793e-10
1.25142e-10
-2.80526e-07
7.61395e-11
5.34636e-11
7.05071e-21
1.33653e-21
3.2968e-21
3.29546e-11
0.00564158
-3.09763e-22
-0.00402864
-0.00411895
2.11259e-17
6.12892e-17
0.0043855
-2.51847e-22
-0.0048673
-0.00407756
2.2448e-11
1.40152e-11
-2.63371e-22
-1.87264e-22
3.61686e-20
1.02477e-09
0.00262276
-0.00529098
-0.00372686
1.17858e-17
5.03793e-17
-1.09716e-22
-2.43452e-23
-0.0054772
-0.00319085
9.26617e-12
5.85879e-12
8.19521e-12
0.00208646
0.00329638
1.19559e-08
-0.00522577
-0.00254746
-0.00463957
-0.00188201
-0.000672948
-0.000380975
-2.52763e-05
3.81532e-05
-0.000174772
6.84091e-05
6.53262e-05
5.84241e-05
3.31501e-05
2.29078e-05
7.28672e-06
3.29999e-06
1.40847e-05
-4.57171e-07
-9.69295e-07
-8.85202e-07
-7.38589e-07
-3.65078e-07
-2.20752e-07
-4.7189e-08
-8.19614e-09
1.54483e-08
1.4658e-08
1.05789e-08
9.58766e-09
1.23391e-08
1.52633e-08
3.63836e-18
2.97798e-17
0.00112555
3.46927e-12
0.00160003
0.00239951
-7.42337e-07
2.40817e-12
-9.26828e-24
3.34864e-24
0.00118544
0.00169378
1.44375e-12
4.49903e-12
8.94579e-09
1.37396e-08
-1.40663e-18
-1.85712e-18
1.23994e-17
0.000850022
0.00116074
9.7359e-13
5.90841e-13
1.36773e-11
0.0285428
-2.01475e-07
1.17938e-14
3.11741e-08
1.35404e-20
2.56718e-24
1.52891e-24
2.60836e-24
3.56159e-25
-0.00617498
8.30512e-25
0.000590773
0.000773001
5.64486e-09
1.07798e-08
-1.92941e-18
-6.57306e-19
-1.01485e-06
3.87268e-13
2.37856e-13
1.38908e-25
-4.17434e-26
0.000400141
0.000398498
0.000500839
-0.0004345
0.155538
3.02511e-09
7.42018e-09
5.94538e-10
-3.24209e-19
-3.57207e-21
0.000261183
0.000316071
0.000565682
0.000345471
0.00058416
0.000194334
1.51608e-13
9.42235e-14
1.37197e-13
-3.23082e-26
-1.9144e-26
5.49925e-14
1.25094e-08
3.92326e-09
0.000206555
0.000116625
4.61879e-20
3.12631e-20
1.34482e-09
4.41913e-09
-0.0044902
5.65807e-15
3.67402e-14
7.45022e-14
2.16927e-14
-1.11558e-26
-1.63513e-27
7.10291e-10
0.00131227
0.000488939
0.000498117
0.000142115
0.000114058
1.03465e-05
-1.35186e-05
-2.24154e-05
-3.48862e-05
-1.86484e-05
-2.3208e-05
-9.31558e-06
-9.26043e-06
-2.53265e-06
-1.80146e-06
-8.36847e-06
0.000120692
6.83981e-05
2.44906e-20
6.18893e-21
5.10496e-20
4.18232e-10
2.24297e-09
8.34785e-09
5.47673e-09
1.01752e-08
8.37557e-09
-2.88632e-09
6.36514e-09
-5.52978e-08
-1.86735e-08
-1.62749e-07
-8.17488e-08
-2.91233e-07
-1.8167e-07
-3.54073e-07
-2.65205e-07
-4.19043e-08
-2.16587e-07
1.15462e-06
3.4217e-07
2.83986e-06
3.52857e-06
1.65816e-06
1.65329e-08
0.684711
1.15817
-3.42216e-08
3.89873e-07
6.55805e-09
8.57656e-10
1.01424e-16
6.8448e-17
1.93757e-16
1.94935e-16
1.71479e-16
3.14668e-16
-1.0597e-15
-4.67023e-17
9.61139e-17
1.41055e-14
8.42379e-15
-5.59193e-28
-6.39378e-27
3.91438e-28
5.17542e-28
2.1631e-28
3.69618e-28
3.84051e-07
5.0249e-07
6.61702e-06
3.71871e-06
2.07286e-09
5.76198e-09
1.35292e-20
4.47393e-20
4.24793e-10
6.89022e-05
3.92852e-05
3.6904e-05
3.95925e-29
2.27315e-07
2.32338e-07
2.1272e-05
1.26957e-28
8.78589e-06
5.52586e-06
5.33354e-15
3.22118e-15
7.68677e-07
9.67022e-29
1.88506e-05
1.9369e-07
6.61217e-08
4.74475e-08
2.08975e-07
2.24061e-08
1.67136e-07
-4.02616e-09
-1.62324e-08
-2.19932e-08
-2.77843e-08
-2.50887e-08
-4.72267e-08
-2.53109e-08
-5.62242e-08
-2.32135e-08
-5.92143e-08
-1.843e-08
-3.38562e-09
-7.58584e-10
-1.23619e-08
1.28619e-09
1.55141e-09
1.59431e-09
2.57023e-09
1.52112e-09
5.36341e-10
3.59551e-10
3.00029e-11
-2.51356e-11
3.18432e-09
-3.62692e-11
-3.57579e-11
-1.47566e-11
-1.10671e-11
-3.28754e-11
-6.80883e-12
-2.05147e-13
7.90459e-13
-2.78031e-11
-1.01342e-08
7.25755e-13
6.74177e-13
-1.68337e-11
2.20805e-05
1.19924e-05
5.17153e-21
2.91052e-20
6.78707e-06
6.00667e-06
3.50359e-06
-7.7675e-30
1.98675e-15
3.05282e-15
1.21327e-15
1.83188e-15
6.97636e-16
2.49926e-13
1.61144e-13
-1.31574e-10
2.20504e-10
1.21402e-05
6.62412e-06
1.04399e-22
1.28314e-20
-7.68524e-30
9.83391e-16
1.19121e-14
-1.04134e-14
8.20218e-14
-2.13481e-14
2.17569e-14
-2.28133e-14
-1.04473e-14
-7.94408e-15
-1.62402e-14
0.851853
0.954039
1.12436
1.16952
1.38866
1.3186
1.59447
1.33338
1.64585
1.27839
1.59457
1.14183
2.28292e-13
-9.93319e-13
-8.30327e-13
-0.00698495
-6.44262e-06
5.8373e-07
4.18767e-06
2.64732e-06
2.53692e-06
2.50863e-06
-3.83906e-06
-2.50355e-07
1.75834e-06
8.49114e-07
-6.13822e-06
-1.91796e-06
-1.50674e-05
-6.52352e-06
-2.78759e-24
0.995056
-2.45412e-05
-1.21116e-05
-1.43414e-15
-3.77013e-16
3.20555e-14
-5.46284e-13
7.29252e-16
3.62449e-16
3.69031e-16
4.55956e-14
-6.38812e-30
3.78693e-16
1.19484e-12
-2.38615e-13
1.44785
0.934158
-2.06056e-10
-1.98249e-10
-3.04909e-05
-1.63517e-05
-2.93754e-07
6.52794e-06
3.58632e-06
1.24636e-20
3.66732e-22
2.4688e-21
-4.29525e-22
-5.84481e-23
-2.61427e-22
-2.40998e-22
-8.97764e-23
-1.27864e-22
-1.53678e-23
-3.75611e-23
1.24317e-24
-5.2206e-24
1.77925e-24
1.06958e-24
8.73874e-25
-2.39869e-25
9.09652e-25
-1.58178e-24
6.51445e-25
-5.96567e-24
2.35911e-25
8.0246e-26
-3.27906e-25
-1.05778e-23
-1.39391e-26
-2.43173e-26
-1.9605e-24
-1.27638e-23
-1.18219e-26
-7.17576e-27
-3.8478e-24
-1.03981e-23
-9.79663e-28
8.72287e-10
-6.86483e-11
1.91507e-09
2.79889e-28
-1.73089e-21
2.59044e-21
-1.02027e-29
2.34078e-12
1.37457e-13
-2.42924e-13
-1.41581e-13
-1.35072e-13
-1.03626e-13
-4.43021e-14
-4.51306e-14
-8.91999e-15
-1.23865e-14
-4.49861e-16
-1.91589e-15
5.16962e-16
1.08889e-16
-3.08665e-15
3.54108e-16
-3.14562e-16
-3.72002e-15
-6.81046e-16
-3.67674e-15
-9.29139e-16
-3.06103e-15
-9.99522e-16
-2.03304e-15
-8.82038e-16
-1.09968e-15
-1.29589e-16
-6.51364e-16
-4.34409e-16
-3.77072e-16
9.39391e-17
-1.82979e-16
5.01972e-16
-4.12467e-16
-4.81388e-17
7.55504e-16
3.8842e-15
3.33243e-15
8.25791e-16
2.45685e-15
-1.86408e-16
5.12528e-13
5.11529e-15
2.40481e-15
1.5364e-15
8.24691e-16
7.74013e-16
-2.68451e-16
3.33507e-16
-9.16804e-16
2.52568e-10
3.24307e-09
1.56528e-16
4.99268e-16
7.5682e-17
-1.21086e-15
-6.6323e-15
-5.3611e-15
3.10059e-28
-1.23352e-15
-3.84713e-15
-9.92468e-15
-4.9917e-15
1.63554e-16
1.18996e-16
3.21495e-16
7.0916e-17
2.64263e-16
3.29402e-17
-5.83443e-18
-8.51104e-18
-4.55503e-18
-3.53408e-18
-7.97855e-18
-2.37704e-18
-2.89828e-19
-4.4439e-21
-1.3202e-18
1.2694e-19
1.02241e-19
8.06802e-20
1.49572e-19
5.73412e-20
1.09112e-20
3.50311e-21
3.62898e-20
-4.44721e-22
-1.87363e-21
-1.46088e-21
-5.06174e-24
-5.41177e-24
-2.42828e-15
-2.12694e-15
-5.2009e-16
2.60388e-15
2.70206e-14
2.51619e-14
3.92282e-15
2.04486e-14
7.63158e-14
4.92148e-14
1.50833e-14
2.84023e-14
5.77515e-14
2.3818e-14
1.4974e-14
8.50261e-15
6.79312e-15
1.15952e-15
-2.46754e-14
-2.56181e-14
-2.18887e-15
-2.19541e-14
-1.02996e-13
-6.98905e-14
-2.39222e-13
-1.3862e-13
-4.44025e-14
-7.56142e-14
-2.65764e-14
-3.81618e-14
2.26106e-31
-3.15951e-27
-1.86621e-10
-9.01786e-11
-5.0525e-11
-8.30973e-12
6.04525e-13
3.62272e-12
3.22839e-12
1.64025e-12
8.74308e-13
1.39316e-13
-1.72124e-14
-5.917e-14
-5.08203e-14
-2.36519e-14
-1.12558e-14
-3.48437e-14
-3.89213e-15
-1.94438e-14
8.29183e-16
-2.29467e-16
-8.49901e-15
1.91234e-20
-7.9361e-08
-8.37759e-06
2.32831e-16
-4.4314e-24
5.84952e-24
1.94456e-16
-1.46183e-29
2.50406e-29
-6.16751e-25
3.43528e-06
5.80554e-06
1.90234e-06
1.86495e-06
9.91803e-07
2.92079e-28
5.85723e-28
8.00297e-29
1.01201e-15
-2.27669e-15
-1.63897e-21
-1.75997e-21
-7.77419e-22
-1.73028e-30
-7.27845e-31
1.9634e-16
-5.26633e-22
-2.88412e-22
-1.49136e-14
-1.79546e-14
-2.84413e-05
-1.78501e-05
-3.51603e-13
-5.41737e-05
1.20873
1.78053
0.690816
4.60691e-16
1.34706e-16
9.83428e-17
7.41831e-18
-7.66016e-18
-7.77039e-18
-1.17653e-17
-3.95767e-18
-3.99526e-18
-8.20321e-19
-1.16156e-18
-5.40437e-20
-1.9541e-19
3.69047e-20
3.7455e-22
2.47935e-20
-2.742e-24
0.0190287
1.16047e-31
9.61838e-32
-3.21883e-18
1.51542
2.12418
7.91804e-10
4.75855e-09
-7.89217e-15
-7.68785e-15
-1.02811e-14
-2.52287e-15
2.40088e-16
3.17346e-24
2.49058e-23
-2.86179e-15
5.02654e-16
1.32118e-14
1.0648e-14
1.32786e-15
7.57792e-15
9.23255e-07
1.45036e-20
-2.00927e-29
8.53448e-29
7.02476e-23
0.000113294
-2.85278e-07
-1.00206e-07
-1.33884e-11
0.0604559
0.222297
4.81789e-05
-2.6701e-15
-4.34333e-05
-1.22279e-22
7.1452e-07
-8.404e-06
-9.98847e-06
-4.03026e-06
-5.1129e-06
-1.3873e-18
-6.73738e-13
0.50399
1.43626e-16
7.45732e-17
5.36646e-17
-5.08277e-19
2.53647e-16
1.10142e-16
1.6031e-16
8.81529e-17
-1.29159e-16
-1.71992e-17
-6.18967e-16
-2.10414e-16
-1.11335e-15
-4.16614e-16
-1.12969e-15
-2.649e-15
-1.59394e-15
-2.74392e-15
3.70498e-15
1.3736e-14
7.69566e-16
1.25759e-14
4.21056e-15
2.01908e-14
7.45557e-15
2.18364e-14
8.82109e-15
1.70864e-14
3.87474e-14
7.25388e-15
7.83429e-15
-2.61906e-15
2.68016e-15
-1.06365e-13
-3.35606e-13
-5.75954e-13
-1.56895e-12
6.16292e-18
-2.05119e-13
0.00298558
8.27166e-06
-0.00453169
1.84169
2.45869
2.16997
2.7595
2.47807
3.0053
-6.93738e-13
2.96429e-06
4.61507e-06
-1.80807e-06
-2.54297e-06
2.3738e-29
-4.76728e-30
-1.24932e-21
-2.26146e-21
8.83636e-21
-3.7531e-22
9.32895e-16
3.62149e-16
5.5891e-16
9.32681e-30
5.60298e-32
3.31209e-32
4.92162e-07
5.18144e-07
-2.46707e-29
9.40854e-21
1.92093e-23
-4.73161e-15
2.81677e-17
1.97591e-17
-7.50351e-06
-6.94753e-13
-2.65373e-13
2.74374
-5.12073e-06
-2.86622e-06
-9.3469e-15
-1.1328e-14
-5.30981e-23
1.29024e-15
4.98885e-15
0.321415
0.218466
8.78114e-08
5.36146e-14
5.1991e-20
2.0988e-20
1.41706e-23
3.17434
0.00519859
-0.000523568
2.28155e-06
3.2342e-06
-7.28519e-22
9.92015e-16
3.10225e-15
1.04822e-17
7.17106e-18
3.73544e-33
1.3019e-33
0.113894
0.0697241
-0.0023527
1.5727e-09
5.81337e-09
-1.50658e-12
2.57214e-07
-3.90907e-30
8.06647e-21
4.63255e-21
4.3287e-07
3.57191e-24
-7.50897e-07
3.0279e-16
5.93574e-17
-3.12825e-30
2.65758e-07
-1.36853e-10
0.0250587
0.0117576
-0.00113143
6.80333e-14
-9.4552e-13
6.80117e-16
1.84299e-15
-3.07402e-30
-2.11741e-06
-1.86829e-06
-6.60008e-13
-2.65684e-13
-2.37889e-23
2.9452
-0.00308226
0.00417038
-0.00464937
6.84263e-05
7.04564e-15
3.87781e-15
2.1279e-21
1.22574e-21
6.48161e-17
4.847e-21
-6.01021e-21
1.31956e-07
-7.72626e-31
1.40163e-17
-1.00857e-33
-6.98871e-34
3.29719e-34
-4.74593e-34
-5.33683e-35
9.90887e-33
6.64462e-20
1.4541e-24
-3.34038e-25
3.24576
-1.84354e-10
-1.43915e-10
1.10542e-11
-3.01229e-34
-1.54952e-34
-9.03249e-35
1.05326e-15
2.07301e-15
3.84411e-18
2.56588e-18
4.48435e-18
-1.64751e-14
-6.32747e-15
4.53365e-13
1.37779e-19
8.76771e-20
3.61379e-21
3.97634e-20
-5.01869e-06
-1.00213e-12
-4.14363e-12
-2.87094e-12
-1.06142e-11
-7.93544e-12
-2.64503e-11
-2.12102e-11
-6.42461e-11
-5.4912e-11
-1.52473e-10
-1.3757e-10
-3.48808e-10
-3.3427e-10
-7.70154e-10
-7.88506e-10
-1.65079e-09
-1.80362e-09
-3.41889e-09
-4.00413e-09
-6.9033e-09
-8.54664e-09
-1.3597e-08
-5.20179e-09
-5.77208e-09
-2.5183e-08
2.79911e-09
6.03431e-08
1.69041e-07
4.03418e-08
4.44317e-07
7.30473e-07
1.71088e-06
1.11436e-06
3.89853e-06
4.76285e-06
1.02599e-05
1.07699e-05
2.2191e-05
2.15918e-05
4.47773e-05
4.17922e-05
8.10358e-05
8.84195e-05
0.00015364
0.000126281
0.000229869
0.00028463
0.000408876
0.000515096
0.0007105
0.000510204
0.000852052
0.00120606
0.0013916
0.00199946
0.0022246
0.000559806
-3.56372e-09
-2.75066e-10
0.00323571
0.00348624
-9.30588e-11
0.00222812
0.0033662
0.00534473
0.00496168
0.00283396
0.0039913
0.00712556
0.00546802
0.00996352
0.00728184
0.0135567
0.00941909
0.0179355
0.0118246
0.0230601
0.0143929
-2.5648e-11
0.0287893
0.00265008
0.0169685
0.00549452
0.00205043
0.0166599
0.0348743
0.0193527
0.00814891
2.83999e-05
1.54011e-06
1.9399e-06
-1.51153e-31
1.33987e-07
1.57692e-18
-1.4577e-17
5.81714e-16
-2.80819e-21
1.38961e-18
6.6566e-08
7.19471e-32
2.26264e-21
-1.58658e-20
-7.08499e-23
-1.00132e-25
2.4681e-09
5.96931e-09
6.85437e-09
1.48477e-09
-3.12204e-08
-2.47572e-12
-3.33275e-22
0.0466578
3.2603
-1.70127e-17
1.75272
-0.00358237
0.000250239
-2.91275e-14
0.000468652
-0.00103574
1.32229e-14
5.99656e-16
2.7028e-16
1.06102e-22
3.04945e-22
-3.32551e-25
3.76899e-25
-1.65084e-25
2.42571e-06
1.89511e-07
-1.25706e-06
-3.63125e-07
-7.18288e-07
-3.78319e-07
-4.638e-13
-1.98136e-13
3.2303
3.06259
-1.19866e-22
0.00214225
-2.98497e-07
-7.19926e-08
7.19344e-08
9.60427e-08
-1.03179e-13
-8.27407e-14
-3.90345e-14
-3.36303e-14
-1.44215e-14
-1.33192e-14
-5.2412e-15
-5.08961e-15
-1.86428e-15
-1.87678e-15
-6.43742e-16
-6.77037e-16
-2.1632e-16
-2.39355e-16
-1.40261e-16
-7.07972e-17
-8.28638e-17
-2.12376e-16
-7.75898e-17
-2.17485e-14
-2.25351e-17
-1.38176e-16
-5.36776e-17
-6.52311e-08
2.86427
4.04576e-17
6.8298e-17
7.96983e-19
9.64626e-18
-3.44903e-18
8.79244e-05
-0.00160011
0.000407546
1.52433
-1.84067e-22
0.0270274
9.71493e-11
-6.02303e-08
-1.97333e-07
0.00862238
0.00299485
0.0213221
1.56647e-18
2.5579e-18
6.71251e-14
1.48717e-13
1.10795e-14
4.01658e-15
9.58858e-13
1.26051e-20
-1.7639e-34
-1.48129e-34
6.21584e-08
-2.38708e-18
-1.89639e-22
-4.86129e-22
-2.2015e-20
-2.17521e-22
1.60296
2.20581e-10
-8.25591e-11
-4.15979e-11
-0.000610844
-0.0007366
-0.000834776
8.04244e-07
-0.00320999
-0.0014903
8.6497e-12
6.87121e-12
2.06394e-19
5.80122e-08
6.1685e-08
-3.6053e-07
-2.66968e-07
6.65133e-08
3.31003e-08
8.80223e-07
7.36755e-32
1.05748e-31
3.01851e-32
-3.01067e-21
-5.21706e-22
-1.11111e-17
-1.37224e-17
-4.85992e-23
-3.05989e-21
-2.28155e-20
-6.2339e-09
0.957203
-0.00466875
-4.63777e-22
-9.46013e-15
-1.54608e-18
-1.14628e-22
-1.05576e-25
-1.29942e-26
-0.000418343
-0.000393557
3.0212
2.89482
5.06192e-17
-2.47521e-07
-4.17167e-07
0.0409776
0.00283448
0.000691653
5.04952e-13
6.56592e-16
2.80198e-16
-1.02599e-34
-1.23376e-34
1.63539e-33
7.53363e-34
6.58637e-33
3.94307e-33
8.15269e-33
5.91374e-33
-3.93999e-32
-1.84859e-32
-2.22875e-31
-1.30994e-31
-3.65721e-31
-2.31181e-31
7.03338e-31
2.96506e-31
6.30916e-30
3.3897e-30
1.21839e-29
6.56559e-30
-3.50058e-30
1.01645e-30
-1.16988e-28
-2.52734e-28
-5.11224e-28
-2.71972e-28
-3.05691e-28
-2.50162e-28
2.81077e-27
6.73902e-27
2.04267e-26
1.10843e-26
2.59234e-26
3.74217e-26
-1.37368e-25
-5.30382e-26
-7.42132e-25
-3.80555e-25
-1.27246e-24
-2.1759e-24
1.21917e-24
-6.43879e-26
1.83677e-23
4.19322e-23
7.68185e-23
3.98532e-23
5.79567e-23
6.80065e-23
-6.41676e-22
-2.49722e-22
-2.2286e-21
-4.3374e-21
-1.12662e-21
-5.48707e-21
-8.60209e-21
1.60355e-20
4.55226e-20
2.10639e-19
4.14291e-19
6.2934e-19
1.04294e-18
3.4048e-19
-3.79357e-19
-2.15634e-18
-1.52787e-17
-3.3627e-17
-5.63656e-17
-1.04092e-16
-5.71627e-17
-2.32756e-17
-4.59471e-17
-1.75547e-16
1.73068e-16
1.87518e-15
4.26657e-15
7.99258e-19
7.43515e-16
8.93369e-15
1.47549e-14
2.57358e-14
1.69387e-14
4.07294e-14
4.96145e-15
-4.25506e-14
6.03371e-14
-1.74497e-13
-9.13737e-13
-1.86688e-12
-4.86205e-13
-3.43522e-12
-5.20135e-12
-7.95763e-12
-6.08681e-12
-1.13549e-11
4.71715e-12
2.5395e-11
1.43223e-10
2.89948e-10
-1.03758e-11
5.23538e-10
8.53056e-10
3.061e-10
5.3962e-10
1.30453e-09
8.84978e-10
4.26118e-10
-6.70464e-09
-1.51768e-08
1.83131e-09
-3.97284e-08
-6.72381e-08
-9.09502e-08
-1.29612e-07
-1.08885e-07
-1.70727e-07
2.06113e-08
2.54251e-07
-2.02401e-07
7.93504e-07
3.06942e-06
5.62621e-06
1.00346e-05
1.52286e-05
-5.92313e-08
-1.78097e-07
1.67424e-05
2.10226e-05
2.19914e-05
1.23772e-05
-6.46419e-07
-2.5329e-05
4.35294e-32
-2.5471e-23
3.34694e-09
-8.67711e-12
-3.9224e-13
-1.74708e-11
2.1902e-12
-4.9788e-12
1.97134e-12
1.9259e-13
1.38489e-12
1.46987e-12
7.46535e-13
8.13449e-13
1.2039e-12
4.08164e-13
7.68051e-13
3.11575e-13
8.39256e-13
-5.25178e-12
-1.17688e-12
-1.70537e-11
-7.18634e-12
-2.99712e-11
-1.65817e-11
-3.1064e-11
-2.35143e-11
3.8037e-11
-7.27486e-12
2.2531e-10
7.70229e-11
5.11188e-10
2.39373e-10
7.34559e-10
4.05949e-10
-2.53977e-12
2.17455e-22
3.95885e-23
-6.43344e-17
-2.84268e-17
-2.03669e-17
-1.1573e-17
-1.2473e-16
-7.52945e-18
-4.48352e-18
-2.5919e-18
-1.54432e-18
-2.23964e-13
-3.72637e-13
3.15966e-16
4.16276e-16
5.88565e-13
2.52005
2.66909
8.72568e-19
1.32558e-18
3.05839e-11
2.05401e-11
9.19564e-07
4.16556e-06
1.79332e-14
-5.88419e-12
2.19983e-17
4.91012e-19
3.61658e-17
-3.86769e-15
0.00149136
3.86879e-12
-8.01281e-12
-1.23151e-11
7.21065e-20
2.66588e-20
2.20086e-24
7.72873e-24
8.62575e-22
5.16968e-18
4.6112e-17
6.34228e-13
-1.64155e-07
-1.56347e-07
1.65396e-11
5.07626e-32
1.15187e-31
-2.34294e-21
-9.0388e-22
-6.39883e-18
-1.1288e-17
-1.92877e-18
-4.89676e-21
-1.89954e-20
6.21476e-33
2.91498e-08
1.84591e-08
-7.91155e-12
3.84787e-07
3.86726e-07
3.25574e-08
1.62484e-08
-2.03324e-27
3.92358e-27
4.29777e-27
4.15067e-10
4.27674e-10
-3.71929e-20
-1.55382e-20
-1.17009e-20
2.56563e-21
-1.39637e-07
-3.51838e-14
4.54298e-14
-1.5262e-15
3.86954e-18
8.01932e-19
-7.56401e-19
8.93838e-20
2.31076e-18
6.39523e-19
-0.000615438
2.8162e-12
2.77096e-12
-3.76758e-07
-1.75392e-07
-2.67831e-07
1.12646e-29
0.000490928
-0.00252949
-0.00203239
-0.0020795
0.00402781
0.000906303
0.0156606
0.00750427
0.0348699
0.0191323
0.0607288
0.0355291
0.0098735
0.0199092
-2.00546e-11
-2.37235e-11
-0.000157848
-0.000307713
1.71318e-30
3.94374e-33
1.11732e-17
5.20058e-17
6.67596e-17
3.1237e-16
-0.00014008
-0.000105363
-6.76745e-22
-4.76567e-21
-2.57599e-21
-1.70604e-20
-1.43822e-20
2.90054e-13
1.18777e-12
-9.11051e-20
-0.00387729
-3.17158e-05
6.68592e-05
-9.57894e-30
-1.58647e-29
-1.44719e-30
-3.74044e-30
3.33587e-31
2.8376e-31
2.4532
2.24122
2.69378
0.932392
-1.24208e-18
-2.24825e-19
-6.49795e-20
0.0792564
2.57146e-16
4.71786e-16
2.32432e-16
2.82052e-13
1.44446e-13
9.79832e-13
7.34865e-13
2.05038e-12
1.79262e-12
1.78239e-12
2.85629e-12
-9.75823e-12
1.49143e-12
2.84633e-12
1.10543e-12
2.47224e-12
7.18657e-13
2.03674e-12
3.39104e-12
3.94772e-13
-6.19224e-08
7.91299e-07
3.50438e-07
6.22212e-07
2.60312e-07
4.47022e-07
1.7639e-07
2.91313e-07
1.07939e-07
1.70035e-07
1.03451e-07
5.86231e-08
8.68215e-08
2.57457e-07
1.22017e-07
3.73205e-07
1.60859e-07
5.14887e-07
1.95567e-07
4.55429e-08
3.52791e-08
2.02565e-07
9.69183e-09
1.68533e-07
-4.14471e-08
-3.88918e-08
-7.01691e-08
-1.27774e-07
-1.11981e-07
-4.51616e-08
-5.92903e-08
-1.80961e-08
-1.76773e-08
-3.02511e-09
-7.56908e-10
-2.37495e-07
-1.40921e-08
2.84133e-09
2.52966e-09
4.00829e-09
-4.14149e-09
1.61938e-09
2.00257e-09
-6.6534e-09
1.96748
2.12676
6.34766e-10
1.14034e-09
4.41509e-19
2.93703e-19
6.65408e-16
2.68643e-16
1.14469e-16
1.03148e-16
4.45447e-17
3.76268e-17
-9.13384e-35
1.64896e-17
5.1621e-10
4.16316e-10
2.02343e-09
2.13681e-10
2.11781e-31
2.72749e-08
-5.8754e-11
-1.69951e-10
4.10335e-24
4.24447e-24
1.66499e-27
1.56508e-32
4.71539e-20
4.89941e-20
-5.63523e-21
1.70185e-20
-7.12302e-08
-7.86019e-08
-5.21128e-08
1.50467e-12
1.75424e-13
-4.38354e-14
-5.34514e-14
-3.36262e-14
-2.5231e-14
2.23978e-28
1.00648e-27
-3.45202e-20
-4.49358e-20
-1.46973e-09
-2.23061e-10
2.91728e-10
1.40031e-10
-1.91751e-09
-5.90541e-10
-4.44652e-09
-4.77099e-11
0.0803233
-7.0112e-15
-3.20981e-15
1.39567e-13
2.01648e-14
0.00471004
0.0106347
-7.73915e-11
-2.68124e-10
-1.08971e-10
-1.21871e-10
-3.52806e-10
-1.10906e-10
-1.95192e-11
-5.04135e-12
-8.4113e-11
1.14454e-11
1.02943e-11
1.33294e-11
2.76997e-11
1.50262e-11
4.09674e-12
2.96887e-12
1.43058e-11
1.30748e-12
1.12506e-11
-4.76402e-13
6.67927e-12
-1.97797e-12
-1.15532e-12
-1.21691e-12
-3.58956e-13
-2.44675e-13
1.47119e-12
-9.0207e-15
3.28472e-14
-1.07317e-13
6.14225e-14
2.691e-14
2.50785e-14
7.01902e-14
2.03965e-14
2.71247e-15
-0.00140147
-0.000806202
7.42366e-11
4.5792e-11
-4.56922e-11
-4.23769e-11
-5.70569e-14
6.7143e-09
1.49257e-09
1.51537e-10
-2.91811e-18
-7.23625e-18
2.02159e-32
8.18581e-32
1.56508e-07
1.62762e-07
1.57508e-08
7.9028e-09
7.56145e-09
3.66568e-09
-3.00414e-22
2.00789e-23
1.30382e-17
2.87071e-17
1.88652e-20
1.3474e-20
1.89534e-08
2.08011e-20
-1.28898e-21
2.65793e-20
1.34807e-19
1.09719e-19
3.07112e-18
6.19675e-19
1.36302e-07
1.5716e-27
1.88835e-27
6.87002e-14
-9.87424e-11
3.32202e-21
-4.71782e-09
2.89319e-08
3.92709e-18
4.4858e-08
1.28361e-08
-7.70316e-17
-4.24759e-15
0.00200636
0.00537414
0.018189
0.00988095
0.00253528
0.00513305
4.02003e-13
1.05548e-13
0.153591
1.09953e-12
3.89227e-13
2.8825e-12
1.25178e-12
7.31886e-12
3.7032e-12
1.80498e-11
1.01889e-11
-2.02434e-11
-7.45976e-11
-9.33386e-11
-1.70419e-10
-1.55029e-10
1.72431e-10
-8.12718e-11
1.82033e-09
2.88838e-09
7.43283e-09
8.43495e-09
1.22606e-08
7.60764e-09
-3.30736e-08
-6.96486e-08
-2.5957e-07
-3.3593e-07
-6.45309e-07
-6.82901e-07
-6.97181e-09
9.64595e-10
-5.39308e-07
1.3004e-07
-8.67488e-07
-6.00327e-07
1.20209e-06
7.15113e-06
1.01604e-05
2.6149e-06
4.29835e-11
2.64858e-11
9.75147e-11
6.57598e-11
2.08367e-10
1.58073e-10
4.29815e-10
1.76113e-19
5.22511e-10
2.61278e-24
2.39528e-27
1.71234e-17
3.50751e-34
-7.83369e-34
2.87551e-20
7.21053e-20
1.20809e-19
3.35957e-20
8.44644e-25
3.3152e-25
3.09497e-31
3.53949e-20
-3.23852e-20
-4.51456e-19
-4.86593e-19
-7.2591e-20
-4.37297e-19
2.55144e-05
2.78656e-05
6.72278e-16
2.16603e-15
-1.45604e-20
1.05879e-27
-2.5776e-26
-3.18953e-19
2.61197e-12
7.69283e-12
1.98419
2.43289
9.42262e-10
-1.84592e-22
4.41916e-20
0.089726
0.0148384
0.00812021
-9.89914e-05
-5.60462e-05
6.00221e-16
7.75343e-16
1.46705
7.78933e-20
3.22246e-07
3.16807e-06
1.62456e-06
2.04284e-12
2.96908e-12
9.18061e-09
3.68343e-10
8.62809e-10
-0.000141164
0.000247983
-3.78047e-31
1.39157
1.53866
2.22602
1.16266e-10
-9.22378e-11
-7.03437e-11
2.01329e-19
2.57936e-19
1.25161e-14
-0.000654203
-0.000385553
-0.00105714
-0.00055596
-1.63146e-31
1.01434e-12
-1.63419e-05
-3.38441e-05
2.02434e-07