/*--------------------------------*- C++ -*----------------------------------*\
  =========                 |
  \\      /  F ield         | OpenFOAM: The Open Source CFD Toolbox
   \\    /   O peration     | Website:  https://openfoam.org
    \\  /    A nd           | Version:  6
     \\/     M anipulation  |
\*---------------------------------------------------------------------------*/
FoamFile
{
    version     2.0;
    format      ascii;
    class       volScalarField;
    location    "19008000";
    object      Cw;
}
// * * * * * * * * * * * * * * * * * * * * * * * * * * * * * * * * * * * * * //

dimensions      [1 -3 0 0 0 0 0];

internalField   nonuniform List<scalar> 
11831
(
0
0
0
0
0
0
0
0
0
0
0
0
0
0
0
0
0
0
0
0
0
0
0
0
0
0
0
0
0
0
0
0
0
0
0
0
0
0
0
0
0
0
0
0
0
0
0
0
0
0
0
0
0
0
0
0
0
0
0
0
0
0
0
0
0
0
0
0
0
0
0
0
0
0
0
0
0
0
0
0
0
0
0
0
0
0
0
0
0
0
0
0
0
0
0
0
0
0
0
0
0
0
0
0
0
0
0
0
0
0
0
0
0
0
0
0
0
0
0
0
0
0
0
0
0
0
0
0
0
0
0
0
0
0
0
0
0
0
0
0
0
0
0
0
0
0
0
0
0
0
0
0
0
0
0
0
0
0
0
0
0
0
0
0
0
0
0
0
0
0
0
0
0
0
0
0
0
0
0
0
0
0
0
0
0
0
0
0
0
0
0
0
0
0
0
0
0
0
0
0
0
0
0
0
0
0
0
0
0
0
0
0
0
0
0
0
0
0
0
0
0
0
0
0
0
0
0
0
0
0
0
0
0
0
0
0
0
0
0
0
0
0
0
0
0
0
0
0
0
0
0
0
0
0
0
0
0
0
0
0
0
0
0
0
0
0
0
0
0
0
0
0
0
0
0
0
0
0
0
0
0
0
0
0
0
0
0
0
0
0
0
0
0
0
0
0
0
0
0
0
0
0
0
0
0
0
0
0
0
0
0
0
0
0
0
0
0
0
0
0
0
0
0
0
0
0
0
0
0
0
0
0
0
0
0
0
0
0
0
0
0
0
0
0
0
0
0
0
0
0
0
0
0
0
0
0
0
0
0
0
0
0
0
0
0
0
0
0
0
0
0
0
0
0
0
0
0
0
0
0
0
0
0
0
0
0
0
0
0
0
0
0
0
0
0
0
0
0
0
0
-2.63828e-19
-2.63961e-19
2.73167e-19
-2.72327e-16
-1.88313e-22
-3.19738e-17
9.43979e-17
-1.44048e-18
-2.88362e-22
-5.12855e-15
-5.7832e-17
3.58492e-22
1.00728e-14
-4.63016e-21
2.54689e-26
1.03664e-15
2.81677e-25
1.86595e-13
-2.21718e-15
-4.97175e-25
-1.31083e-23
-6.81517e-16
1.87273e-14
6.57153e-29
-1.8331e-27
-7.4606e-13
9.38712e-15
-5.08682e-29
8.01525e-15
-9.96395e-32
-2.49782e-26
-1.81893e-13
1.96938e-13
-2.66072e-30
-3.46834e-30
-4.37429e-14
-4.13896e-14
-5.29911e-34
6.73302e-29
-2.38572e-13
1.39407e-12
1.20656e-32
1.88018e-32
2.30846e-13
1.83533e-14
2.86959e-36
2.47715e-31
8.68574e-13
2.55603e-20
3.32352e-18
1.07215e-15
-1.32056e-20
7.76586e-13
-1.38909e-34
4.19802e-21
6.7908e-18
8.43957e-18
1.84585e-17
-1.31405e-23
-3.02132e-14
-1.93816e-17
-1.12694e-34
-9.71611e-25
5.2428e-16
1.68056e-13
1.47318e-23
-1.1948e-15
1.03733e-19
1.73393e-13
1.49993e-36
1.25366e-37
5.94846e-14
2.79009e-14
-1.13344e-38
-1.23032e-33
3.82752e-13
7.24526e-15
-3.81163e-27
-5.98422e-13
6.80145e-29
-7.06713e-32
2.00051e-14
-1.00288e-27
-3.43034e-15
1.32336e-22
-2.37958e-14
9.92795e-29
8.55246e-26
1.35289e-14
-5.77425e-14
6.76856e-25
2.88864e-13
-8.19844e-39
3.3799e-14
2.12835e-14
-6.02458e-39
1.41135e-14
5.40905e-36
2.88e-40
1.06086e-13
-1.47069e-34
-2.07547e-14
1.06782e-12
4.89825e-32
2.97204e-14
-6.12649e-38
-3.44931e-14
1.00026e-32
1.17827e-12
-4.43854e-34
4.16379e-13
2.07587e-36
-3.73268e-21
-1.68595e-19
2.60449e-18
7.41523e-20
-2.29178e-24
3.28072e-14
2.3816e-17
-1.51452e-18
-1.13258e-18
-4.8282e-21
7.69681e-16
-8.9488e-25
-4.52312e-16
1.03542e-19
-5.73805e-21
4.85869e-15
6.52895e-26
2.10638e-13
-5.72862e-15
-2.03141e-30
-9.72652e-28
5.82122e-13
-5.44141e-16
1.38008e-19
-1.16108e-21
1.46958e-17
2.50952e-15
-7.03885e-21
-1.06218e-27
-6.86381e-13
-7.07356e-14
-1.21532e-33
-1.33694e-16
1.23139e-35
-2.85364e-31
1.52004e-22
1.20666e-33
1.00164e-13
1.53542e-13
4.94567e-23
1.58455e-13
-3.30857e-14
5.47791e-23
6.85985e-17
4.99717e-22
-6.3234e-27
-2.826e-16
-1.97181e-15
-5.83628e-24
5.76048e-17
-2.84399e-18
7.32486e-13
-3.10466e-38
9.07579e-15
3.56881e-15
3.19098e-40
1.24646e-20
-5.0905e-19
-1.11433e-18
-2.0318e-18
-2.20087e-18
-3.41081e-18
3.00423e-18
1.07033e-17
4.84677e-17
1.05493e-16
1.71034e-16
3.08058e-16
2.58131e-16
3.52561e-16
5.52451e-16
3.67989e-16
-2.47528e-15
-6.06687e-15
-1.64797e-14
-3.21361e-14
-4.04778e-14
-7.07209e-14
-3.48843e-14
-1.67605e-14
3.44941e-13
8.16996e-13
1.98577e-12
3.83385e-12
4.66532e-12
8.04827e-12
6.9009e-12
1.28246e-11
1.19702e-11
1.85445e-11
2.01601e-11
2.50698e-11
3.31065e-11
2.83055e-11
5.29164e-11
1.11272e-11
7.61587e-11
-5.70875e-11
1.03266e-10
-2.3698e-10
1.24753e-10
-6.55836e-10
1.01748e-10
-1.54205e-09
-7.055e-11
-3.24026e-09
-7.6253e-09
-1.2995e-08
-6.29425e-09
-2.07571e-08
-1.15852e-08
-3.19605e-08
-3.48809e-08
-4.4808e-08
-4.72729e-08
-5.24382e-08
6.05291e-08
1.83724e-07
-4.56973e-08
4.34196e-07
1.29847e-06
2.22952e-06
3.7563e-06
5.51308e-06
3.65502e-06
7.79852e-06
5.69774e-06
1.04758e-05
9.1224e-06
9.27587e-06
1.33796e-05
4.42052e-06
-4.16206e-05
-8.90845e-05
-8.38239e-06
-0.000169484
-0.000405233
-0.000632896
-0.000297698
-0.000944552
-0.00141328
-0.0018672
-0.00205847
-0.00240977
-0.00237856
-0.00267814
-0.00048787
0.00166216
-0.00268334
0.0058966
-0.00178036
0.0131405
0.0405903
0.0647503
0.024675
0.0984021
0.187527
0.260252
0.143355
0.350131
0.542757
0.689488
0.946253
0.457235
0.853056
0.580187
1.02838
0.715938
1.2084
0.859711
1.38443
1.00517
1.54685
1.14483
-4.0017e-12
1.68606
1.27071
1.79366
2.17005
1.37523
0.883971
0.975547
0.564512
0.637447
2.22401
2.47142
0.32799
2.4642
2.56541
0.381014
0.170682
2.48122
2.42768
0.205851
0.0771877
2.27228
2.08202
0.0983633
1.87769
1.58072
0.0282727
0.0397152
1.36997
1.0489
0.00649673
0.0119223
0.871155
0.599443
-0.00107604
0.474596
0.287916
0.00109693
-0.00251116
0.215142
0.110763
-0.00183764
0.0763572
0.0301135
-0.00209315
-0.00198954
0.0176772
0.0026514
0.00744752
-0.00265606
-0.00130396
-0.00350789
-0.00356353
-0.00300158
-0.00332592
-0.00203308
-0.00247004
-0.00108883
-0.00144547
-0.000447389
-0.000662583
-0.00012151
-0.000220667
-2.64057e-07
-3.4699e-05
2.75783e-05
2.01517e-05
2.47045e-05
2.43968e-05
1.63144e-05
1.84657e-05
7.85677e-06
-0.00135039
1.01533e-05
-0.00136015
-0.00163924
-0.000774056
5.55672e-06
1.52794e-06
-0.00129411
-0.00115024
-0.000718914
6.87034e-07
-1.85725e-07
-0.00118958
-0.000526135
-0.000949519
0.000253599
-3.09317e-07
-2.73269e-07
-0.0006349
0.00113714
-2.52164e-07
-1.30138e-07
-0.000279336
0.00204889
0.000129867
0.00292848
-9.12695e-08
-2.52867e-08
-0.000490694
0.000564282
0.003708
0.000982086
0.00433648
-1.0562e-08
3.07652e-09
-1.19073e-09
3.97784e-09
3.69375e-09
2.69985e-09
0.00135779
0.00478433
3.86334e-09
3.03226e-09
0.00166387
0.00502469
1.21171e-09
0.00188691
0.00510445
1.67319e-09
0.00201172
0.00496453
3.44351e-10
0.000584459
0.00206134
0.00462764
-0.000231485
6.08221e-10
0.00201608
0.00416008
0.0085198
0.00724115
0.0135542
0.0110111
0.019045
0.0148778
0.0239163
0.018042
0.0270932
0.0113532
0.0133142
0.0084678
-0.000623476
-0.00024022
-0.000171387
-3.08112e-05
-4.91054e-06
1.69606e-05
2.14881e-05
1.44381e-05
1.3788e-05
6.59202e-06
5.17976e-06
1.47546e-06
7.82811e-07
-1.22605e-07
-2.56074e-07
-2.25267e-07
-2.15217e-07
-1.10273e-07
-8.61009e-08
-2.43103e-08
-1.26917e-08
-1.27681e-07
1.98739e-09
3.89055e-09
3.15545e-09
2.91313e-09
1.35236e-09
9.73462e-10
0.00961662
0.00617776
2.59751e-11
2.03099e-10
6.84596e-11
-5.35409e-11
-6.28895e-11
3.80245e-10
1.22723e-10
0.00680799
0.00441062
1.92141e-05
-3.78483e-11
-3.23987e-11
-3.80592e-11
-4.3571e-11
-2.83868e-11
-2.24708e-11
0.00472963
0.00308223
-1.09689e-11
-6.64517e-12
-1.71609e-11
2.56945e-10
-7.31926e-12
-3.58747e-12
-1.6046e-13
6.8913e-13
0.00322848
0.00469722
0.0021115
8.07085e-13
7.24531e-13
1.19134e-13
7.07241e-13
7.99796e-13
6.10903e-13
5.52156e-13
3.32719e-13
2.32124e-13
6.27152e-13
1.43444e-13
9.02596e-15
-8.62619e-15
7.60372e-14
-1.64062e-14
-1.23322e-14
-1.05069e-14
-1.73591e-14
-8.20865e-15
-2.3685e-15
-1.24205e-15
-5.94992e-15
-4.8303e-16
2.54481e-16
2.58139e-16
-2.62487e-17
2.31233e-16
1.16939e-16
0.00216081
0.00141932
1.94707e-16
8.24802e-17
1.52781e-17
2.2763e-13
1.31213e-13
0.00141759
0.000938189
0.000893179
0.000592365
0.000535139
0.000357803
1.58967e-14
-6.44312e-15
3.38974e-13
0.000304433
5.32358e-18
-3.76207e-18
0.000205405
-1.16276e-14
-1.11157e-14
0.000608294
0.000164392
-5.33272e-15
-3.1211e-15
-8.71283e-15
-1.47887e-15
-5.83125e-15
7.35457e-18
-3.5459e-18
-1.99207e-18
-1.91131e-11
-4.21246e-16
-3.19764e-15
0.000112067
0.00927058
-0.00179727
1.21029e-05
1.82461e-05
1.33837e-05
1.6343e-05
1.35425e-05
1.26006e-05
1.2416e-05
5.79676e-06
1.07824e-05
-3.93601e-06
8.24827e-06
-1.674e-05
4.27646e-06
-3.23309e-05
-1.13148e-06
-4.99436e-05
-7.89829e-06
-6.7999e-05
-1.57136e-05
-8.46826e-05
-2.41244e-05
-9.79594e-05
-3.22829e-05
-0.000106372
-3.93206e-05
-0.000108745
-4.44235e-05
-0.000105148
-4.70431e-05
-9.60981e-05
-1.39742e-05
-4.70066e-05
-8.28199e-05
-4.43376e-05
-6.75567e-05
-3.96046e-05
-5.14238e-05
-3.32845e-05
-3.64814e-05
-2.64447e-05
-2.44326e-05
-1.97375e-05
-1.53327e-05
-3.35342e-08
1.55064e-05
0.000121181
0.000140152
2.7703e-05
0.000149887
0.000474223
0.00044792
0.000151014
0.000408128
0.00101854
0.000868532
0.000359791
0.000720529
-1.69929e-05
0.000307551
0.00058217
0.00122091
0.000941152
0.000458552
0.000708706
0.00132475
0.000958195
0.00164263
0.00114513
0.000678229
0.000781979
0.0012206
0.000807795
0.000523627
0.000525186
0.00034362
0.000336119
0.000221372
0.000211492
0.00118305
0.000140106
0.00013074
8.72896e-05
7.92936e-05
0.000110267
6.48061e-05
4.71988e-05
3.73781e-05
4.73232e-05
2.758e-05
2.1161e-05
-0.000156119
1.58208e-05
1.17612e-05
-1.43826e-18
-3.17056e-19
-5.978e-19
8.90975e-06
8.4288e-05
2.7539e-20
0.00395937
-0.00249942
1.35808e-16
-1.32401e-15
5.81021e-05
-3.25086e-20
0.000829823
-0.00256525
6.41863e-06
4.92705e-06
4.95075e-20
3.79011e-20
9.53876e-16
8.84244e-05
4.10347e-05
-0.000845648
-0.00230929
3.00454e-16
-2.61332e-16
3.02399e-20
9.64589e-21
-0.00161174
-0.00191802
3.44045e-06
2.67601e-06
3.53892e-06
2.86346e-05
3.91479e-05
-6.19094e-08
-0.0018153
-0.00152287
-0.00165687
-0.00115354
-0.000786093
-0.000517566
-0.000249459
-0.000136525
-0.000320847
-6.75135e-05
-6.98105e-06
4.84983e-06
1.39868e-05
1.12285e-05
8.68186e-06
5.74521e-06
8.2146e-06
2.86359e-06
1.49466e-06
3.32204e-07
4.57245e-08
-1.60422e-07
-1.37445e-07
-1.06569e-07
-6.83822e-08
-3.14352e-08
-1.49258e-08
-3.97678e-08
-1.85134e-09
-5.85495e-09
-2.09521e-08
2.82951e-16
2.44344e-16
1.89621e-05
1.94685e-06
1.95099e-05
2.58005e-05
-0.000218725
1.42777e-06
5.24651e-21
-2.68945e-22
1.299e-05
1.66433e-05
1.05207e-06
2.38534e-06
-1.46261e-09
-9.83706e-09
2.32799e-16
9.83244e-17
3.2915e-16
8.45824e-06
1.05148e-05
7.48484e-07
5.58602e-07
4.12326e-06
0.0113223
-9.40585e-05
-5.40122e-10
2.68497e-06
-3.03834e-18
-6.25511e-22
-5.25617e-22
-6.41583e-22
-2.12475e-22
0.00156741
-3.04777e-22
5.3899e-06
6.50999e-06
3.72431e-10
-3.86563e-09
4.81402e-17
3.66987e-18
3.76249e-06
3.85603e-07
2.91474e-07
-1.34704e-22
-8.31219e-24
4.09773e-06
3.36361e-06
3.95285e-06
-0.00282524
0.239658
8.75558e-10
-1.04473e-09
9.54789e-10
-4.3655e-18
-4.45595e-18
2.05697e-06
2.35528e-06
4.29499e-06
2.50242e-06
4.36767e-06
1.37751e-06
1.95262e-07
1.49493e-07
2.06468e-07
3.48515e-24
8.36054e-24
1.0721e-07
-8.13527e-09
2.41741e-09
1.43576e-06
7.91927e-07
-3.42746e-18
-1.33498e-18
7.59853e-10
1.14351e-10
0.0182863
4.45261e-11
7.53802e-08
1.37422e-07
5.47291e-08
6.75803e-24
2.61282e-24
-5.62485e-08
2.61028e-05
1.12331e-05
1.47274e-05
5.81973e-06
7.14393e-06
2.49915e-06
2.74483e-06
7.37166e-07
6.15222e-07
4.77213e-08
-9.80436e-08
-1.38443e-07
-2.32707e-07
-1.20389e-07
-1.65593e-07
-5.82068e-08
8.1009e-07
4.47849e-07
-5.89651e-19
-1.81394e-21
-2.19087e-18
5.38979e-10
4.41965e-10
-2.34232e-09
-6.74029e-10
-7.15224e-09
-3.2818e-09
-1.32421e-08
-7.30791e-09
-1.73062e-08
-1.07333e-08
-1.08418e-08
-1.07758e-08
2.08902e-08
2.37313e-09
8.45117e-08
3.42007e-08
1.75319e-07
8.59644e-08
2.51881e-07
1.42586e-07
4.27964e-07
2.78806e-07
1.76852e-07
7.82816e-06
1.78031
1.65331
-6.76023e-08
-7.88192e-08
1.48335e-09
2.30847e-09
-1.07563e-15
-8.96221e-17
-5.37155e-15
-2.53338e-15
-1.34378e-14
-8.78119e-15
-2.01723e-14
-1.68803e-14
2.69729e-12
3.73772e-08
2.74723e-08
1.63483e-24
5.29132e-24
6.51243e-26
3.0578e-25
-1.18636e-25
-1.25023e-25
-2.38517e-08
-2.13855e-08
9.69058e-08
1.26774e-07
3.05168e-09
-1.29805e-09
-1.48193e-19
-1.06684e-18
7.48598e-08
4.49565e-07
2.49566e-07
2.37996e-07
-5.9358e-26
-3.46865e-09
-3.07182e-10
1.32849e-07
-1.01985e-25
-3.36876e-07
-7.49573e-08
1.82288e-08
1.35631e-08
4.96173e-06
-7.78279e-26
1.20973e-07
-5.49343e-09
1.99595e-09
3.74796e-09
3.89865e-09
5.43633e-09
9.33233e-09
7.23736e-09
2.96327e-09
3.06256e-09
8.79709e-09
2.8274e-09
9.54155e-09
2.29718e-09
9.2072e-09
1.42078e-09
8.01762e-09
3.22843e-10
-5.7155e-10
-9.89602e-10
-8.41768e-10
-1.26815e-09
-5.77091e-10
-5.78418e-10
-1.4921e-09
-5.12459e-10
-1.12931e-10
-5.04081e-11
1.98748e-11
4.01317e-11
-1.58035e-09
2.20823e-11
2.39423e-11
8.00792e-12
6.28967e-12
2.30777e-11
3.91025e-12
-1.4815e-13
-9.38799e-13
1.95138e-11
8.09852e-10
-6.92965e-13
-7.50432e-13
8.92149e-12
1.36934e-07
7.29953e-08
4.2312e-20
-4.08464e-19
-1.05133e-06
-4.3225e-07
-2.33823e-06
-1.29134e-26
8.74545e-09
1.08509e-08
6.5872e-09
9.47279e-09
4.65554e-09
-2.71787e-13
-2.14402e-13
1.4527e-09
2.25756e-09
7.39858e-08
3.95217e-08
7.94036e-20
-6.59128e-20
-2.363e-26
6.22731e-09
-3.18922e-14
-9.51899e-16
-1.37714e-13
2.30597e-14
-5.80295e-14
3.90344e-14
1.95398e-14
1.83921e-14
1.1794e-14
0.0362838
0.0386877
0.0520828
0.052591
0.0713243
0.0670157
0.092089
0.0794234
0.110782
0.0871804
0.123534
0.0873063
2.38e-07
2.60963e-10
2.56036e-11
0.00584812
-1.93144e-06
-9.22452e-07
-1.55924e-07
-4.14038e-07
-4.25885e-08
-1.70892e-07
-7.01673e-07
-3.29947e-07
-6.32958e-08
-1.46854e-07
-4.70629e-07
-2.30375e-07
-5.44466e-07
-2.8173e-07
2.49838e-21
0.0599651
-4.41584e-07
-2.80316e-07
5.24844e-15
3.1406e-15
4.342e-10
9.18476e-11
4.12818e-09
-1.16201e-16
-6.38307e-16
-6.36713e-14
8.90718e-28
3.0965e-09
6.13825e-10
1.80107e-10
0.125748
0.0839027
5.7988e-10
1.11888e-09
-1.03095e-07
-1.33164e-07
-1.07151e-07
3.93796e-08
2.11136e-08
-2.47794e-19
7.58898e-20
6.38906e-20
4.89029e-20
6.36157e-20
1.79989e-20
3.39136e-20
3.00218e-21
9.91213e-21
-9.50061e-22
6.79602e-22
-8.43157e-22
-9.22495e-22
-4.23743e-22
-6.31368e-22
-1.13891e-22
-1.03519e-21
-2.52282e-22
-7.10668e-22
-4.09015e-22
-6.3295e-22
-4.24957e-24
1.34363e-23
-5.26982e-22
3.34345e-22
1.0358e-23
7.1793e-24
-5.47105e-22
2.51349e-21
2.18105e-24
6.54737e-25
-2.04161e-22
6.117e-21
-1.75894e-25
3.14505e-09
1.93092e-09
4.0181e-09
-1.94597e-25
6.6038e-20
6.35681e-20
-9.38099e-28
7.64696e-10
2.82307e-10
2.15857e-11
6.26056e-11
-1.26196e-11
-1.35474e-12
-1.14464e-11
-9.58636e-12
-6.63882e-12
-6.86586e-12
-2.41432e-12
-3.15e-12
-5.20381e-13
-9.38582e-13
-3.56582e-12
6.71651e-15
-1.35778e-12
-3.4457e-12
-1.65326e-12
-2.78379e-12
-1.73411e-12
-1.97139e-12
-1.55017e-12
-7.32304e-13
-1.1806e-12
9.94628e-13
-6.8831e-13
-7.45175e-13
3.03266e-12
-1.46343e-13
5.14524e-12
6.01741e-13
6.91441e-12
1.10828e-11
1.40542e-12
8.03749e-12
2.01647e-11
1.65447e-11
8.09199e-12
1.14878e-11
-4.48405e-13
3.77599e-10
1.08458e-11
-2.1772e-12
7.21166e-12
-1.54621e-11
3.02425e-12
-2.77401e-11
-1.49668e-12
-3.71881e-11
2.9063e-09
4.44038e-09
-7.45645e-11
3.8612e-09
-5.79313e-12
-4.26482e-11
-1.30631e-10
-1.12141e-10
-1.12027e-25
-4.33519e-11
-8.72132e-11
-1.2878e-10
-7.2686e-11
-4.38385e-16
-4.28166e-16
-9.32387e-16
-3.83076e-16
-9.61849e-16
-3.00464e-16
-4.61085e-17
-6.17065e-18
1.6905e-17
1.91818e-17
2.10417e-17
1.82389e-17
6.43244e-18
4.24758e-18
1.61569e-17
2.21677e-18
-2.97123e-19
-6.03024e-19
5.80742e-19
-6.78839e-19
-2.90305e-19
-2.31297e-19
-6.28176e-19
-1.52126e-19
-1.03272e-20
8.53281e-21
9.03198e-22
1.10712e-20
-5.96349e-11
-2.71255e-11
1.58235e-10
2.50738e-10
1.20357e-09
1.21247e-09
3.10858e-10
1.11606e-09
2.82656e-09
2.11466e-09
9.48369e-10
1.45164e-09
1.98853e-09
1.04371e-09
8.98951e-10
3.54108e-10
5.00827e-10
-1.63547e-10
-3.12759e-09
-3.56914e-09
-5.14698e-10
-3.61635e-09
-1.30335e-08
-1.0928e-08
-2.90257e-08
-2.11392e-08
-8.65582e-09
-1.46328e-08
-6.51078e-09
-9.45313e-09
-3.62403e-26
1.96599e-25
2.51483e-10
-2.08755e-12
-4.02325e-11
-4.39715e-11
-3.08374e-11
-1.57405e-11
-7.79508e-12
-1.3346e-12
1.30139e-13
7.10633e-13
5.36199e-13
3.12122e-13
1.58348e-13
3.59021e-14
3.99174e-15
6.86235e-14
-6.98442e-15
2.19181e-14
-8.14685e-15
-6.90173e-15
1.72621e-15
-5.50323e-19
2.78917e-08
-3.45861e-07
2.14918e-12
2.96625e-21
1.48291e-20
1.94255e-09
-4.32196e-27
-5.13607e-26
-3.88066e-22
2.06517e-08
3.62802e-08
1.11245e-08
1.08273e-08
5.70591e-09
-6.32562e-26
-1.61843e-25
-1.1471e-26
-5.12304e-15
-4.51927e-15
4.52714e-20
6.70389e-20
1.71593e-20
1.32571e-27
1.05867e-27
-3.9374e-16
1.13895e-20
1.02084e-20
-4.62356e-09
-5.78661e-09
3.63073e-07
8.43228e-08
-4.18567e-08
1.21881e-07
0.121906
0.177234
0.075875
1.00376e-13
8.60502e-14
9.22995e-14
3.71789e-14
2.52147e-14
3.81232e-15
-1.62485e-16
-1.75138e-15
-1.0071e-15
-1.1707e-15
-1.02771e-15
-4.806e-16
-5.86284e-16
-1.20875e-16
-2.01866e-16
-8.68606e-18
5.71373e-21
0.00187825
3.30978e-28
1.89967e-28
-2.04002e-15
0.173221
0.244235
3.91977e-09
3.07113e-09
-3.12077e-09
-3.25733e-09
-3.98305e-09
-1.65729e-09
2.26383e-09
3.57889e-21
2.24956e-21
-1.6686e-09
-2.23633e-10
5.0085e-09
5.49091e-09
5.45776e-10
5.2177e-09
5.31574e-09
-3.94076e-17
-1.00685e-26
-6.61829e-26
2.27717e-20
7.68816e-07
-1.62472e-10
-3.69677e-09
3.34536e-10
0.453386
1.56211
1.35326e-05
-2.00643e-14
-0.000187144
8.76241e-21
-9.82752e-06
-1.06023e-07
-4.94907e-09
-6.97122e-08
-2.4345e-08
-5.86354e-14
-6.31783e-08
0.0502734
1.51475e-09
9.61327e-10
7.29132e-10
-2.28397e-14
3.62174e-12
2.49747e-12
-2.864e-12
-1.8466e-13
-1.90056e-11
-7.95378e-12
-4.13104e-11
-1.98993e-11
-5.57639e-11
-3.07241e-11
-5.45138e-11
-8.60637e-11
-2.43342e-12
7.39723e-11
5.08487e-10
1.18936e-09
2.02293e-10
1.10095e-09
5.16322e-10
1.63513e-09
8.23915e-10
1.62485e-09
8.93675e-10
1.25228e-09
1.81585e-09
7.80232e-10
-8.37455e-10
-3.69958e-09
3.98676e-10
-1.36826e-08
-3.18328e-08
-5.45122e-08
-1.11689e-07
-3.03743e-12
-2.5733e-08
0.000783359
2.04185e-05
7.1054e-05
0.24067
0.328936
0.326855
0.432524
0.434361
0.554257
-6.47254e-08
1.86439e-08
3.06704e-08
-4.0383e-08
-2.22239e-08
3.23711e-28
2.73194e-27
2.60183e-20
5.23647e-20
-1.21075e-20
5.96471e-20
-3.14573e-15
-4.15499e-15
-1.44707e-15
2.25301e-27
-9.05644e-30
-1.82181e-29
2.80273e-09
2.96921e-09
-1.91008e-26
9.0124e-18
8.2922e-23
-1.83898e-09
4.68063e-10
3.45424e-10
9.3938e-07
-7.11485e-08
-3.56654e-08
0.565667
3.45785e-08
4.64256e-09
3.56054e-14
1.2185e-13
4.64423e-21
8.82858e-10
4.5379e-09
0.0413603
0.0262139
7.71909e-06
2.52609e-08
-5.18908e-19
-1.376e-19
-1.81956e-22
0.693019
0.000773796
0.000265389
1.54081e-08
2.35814e-08
1.11539e-20
9.58331e-10
3.70723e-09
2.24269e-10
1.61089e-10
-1.31111e-29
-1.03311e-29
0.0191276
0.0114725
-0.00245515
4.8214e-09
-2.15236e-09
-1.0942e-07
1.45739e-09
1.59597e-27
1.83606e-18
-7.58661e-17
2.49045e-09
-1.69583e-22
-2.0888e-08
-5.72611e-16
-1.84982e-17
8.9005e-28
1.52873e-09
1.40056e-09
0.00710629
0.00393655
0.00184266
-1.07197e-12
-7.45889e-08
8.93395e-10
2.88425e-09
2.23925e-27
1.03651e-07
3.65312e-08
-7.28245e-08
-3.896e-08
1.19903e-20
0.720504
0.000860976
0.00208871
0.000113829
8.36886e-06
9.5184e-09
6.80751e-09
6.63497e-18
6.67446e-18
-5.50256e-11
-1.00704e-17
-1.09345e-16
7.48797e-10
1.60691e-28
2.83944e-10
-2.2664e-30
-1.17262e-30
-7.64691e-30
-5.47846e-31
-5.50453e-30
-1.65089e-29
-4.87725e-17
-1.49856e-22
-4.68401e-23
0.846232
1.94546e-10
9.05601e-11
1.37448e-09
-1.90805e-31
-3.83994e-30
1.99505e-31
2.15393e-09
4.72682e-09
1.05768e-10
7.39662e-11
1.05026e-10
4.54409e-13
7.30654e-13
7.68224e-13
-1.72655e-18
-8.19529e-19
1.50594e-20
-3.10143e-19
-0.000352009
-7.08366e-08
-2.21849e-07
-1.51399e-07
-4.28887e-07
-3.11597e-07
-8.03811e-07
-6.17947e-07
-1.44507e-06
-1.18465e-06
-2.49039e-06
-2.20775e-06
-4.16797e-06
-3.99747e-06
-6.8029e-06
-6.96504e-06
-1.08574e-05
-1.15309e-05
-1.68932e-05
-1.84627e-05
-2.4496e-05
-2.87639e-05
-3.21944e-05
-1.51041e-06
2.37493e-05
-3.89384e-05
8.73643e-05
0.000304523
0.000622719
0.000231467
0.00121453
0.00210567
0.00374378
0.00227708
0.00647574
0.00888088
0.0145381
0.0174798
0.0273438
0.0232454
0.0418456
0.0444248
0.0652986
0.0626514
0.0940099
0.0913871
0.127475
0.132629
0.173995
0.183457
0.232645
0.203823
0.263599
0.304561
0.334407
0.390189
0.416823
0.215643
-1.69354e-05
-3.66773e-06
0.489566
0.50962
-1.52872e-06
0.405663
0.479702
0.610619
0.554724
0.399387
0.444258
0.627007
0.482658
0.692586
0.511986
0.747312
0.530229
0.787597
0.53584
0.810471
0.529612
-8.02979e-07
0.815167
0.427465
0.510193
0.326031
0.291406
0.921318
0.80165
0.478843
0.271238
2.13545e-06
1.15333e-08
1.62678e-08
-6.34028e-30
7.78997e-10
6.28162e-17
6.55939e-17
1.55198e-09
4.54203e-20
4.91071e-11
3.8071e-10
-3.53632e-29
-2.53867e-17
-1.30902e-16
2.19804e-18
-6.50403e-23
5.20909e-09
-1.32131e-08
-6.20792e-08
-1.0858e-07
-2.24723e-07
-1.42735e-07
1.23479e-18
0.0123512
0.736216
-7.29148e-15
0.311507
0.000355079
0.00105264
4.10479e-14
0.000280128
7.23e-05
1.96154e-08
4.37492e-09
2.41196e-09
1.14815e-20
-8.02679e-20
-2.66564e-23
-1.24245e-22
8.4373e-25
1.72295e-07
6.97575e-08
1.11351e-08
2.6725e-08
2.40189e-09
9.50471e-09
-6.08142e-08
-3.40048e-08
0.866789
0.896814
4.97383e-20
1.95551e-05
-1.86073e-08
-8.36417e-09
-5.53739e-09
8.17847e-06
-2.01963e-08
-1.86395e-08
-1.01375e-08
-9.915e-09
-4.93477e-09
-5.12309e-09
-2.33441e-09
-2.56942e-09
-1.07388e-09
-1.24639e-09
-4.7952e-10
-5.90079e-10
-2.08004e-10
-2.71606e-10
-1.19233e-10
-8.75344e-11
-1.21741e-10
-2.83548e-10
-1.33212e-10
-7.85296e-09
-3.56681e-11
-2.32482e-10
-1.16865e-10
-6.07842e-05
0.394024
-1.71313e-16
-1.85164e-16
-4.36138e-17
-6.16364e-17
-3.48409e-18
-6.29185e-05
0.00112635
0.0185684
2.41115
-4.92148e-18
0.00044145
1.90733e-05
-2.94466e-07
-3.59331e-07
0.241111
0.118465
0.43748
4.69585e-11
6.19184e-11
1.19995e-12
1.32534e-12
9.6924e-13
1.47364e-08
9.03694e-08
-6.33575e-20
1.17251e-32
-2.45007e-30
3.48625e-10
-1.12761e-17
5.17343e-20
-4.14897e-17
-1.25514e-16
-1.63815e-19
0.0947177
2.25792e-09
2.09414e-11
1.8049e-12
8.68852e-05
1.04619e-05
-1.7673e-06
4.09427e-08
0.000113253
0.000496368
6.74171e-07
6.76691e-07
-3.11849e-18
-2.08928e-09
-6.51684e-10
-1.36868e-10
3.01399e-09
3.93408e-10
1.91881e-10
7.69422e-09
-2.73245e-29
-4.1475e-29
-1.04929e-29
3.54118e-20
2.25946e-20
3.78671e-17
5.31561e-17
-1.37263e-19
-5.26054e-17
-9.55122e-17
-4.33215e-08
0.0379146
0.0182191
3.08938e-20
-2.3593e-12
2.5516e-18
3.9576e-19
3.67258e-24
2.29515e-24
-1.06789e-05
-1.79732e-05
0.704096
0.807677
8.17057e-14
-3.50237e-07
3.5605e-07
1.13175
0.0982114
0.0394225
-3.76278e-13
4.5608e-09
2.38946e-09
1.04154e-31
-1.41754e-30
-8.81922e-30
-6.57939e-30
-1.25827e-29
-1.15955e-29
4.65972e-29
2.1494e-29
3.37934e-28
2.32116e-28
7.68059e-28
5.95645e-28
2.98313e-28
5.2465e-28
-7.10402e-27
-3.80986e-27
-2.78665e-26
-1.92393e-26
-4.69722e-26
-3.67982e-26
4.26232e-26
-2.55173e-27
6.33738e-25
1.05778e-24
2.49121e-24
1.72529e-24
2.36418e-24
2.21815e-24
-1.11108e-23
-2.24285e-23
-9.24185e-23
-6.00801e-23
-1.63433e-22
-2.12876e-22
1.49251e-22
-3.89844e-23
2.30346e-21
1.17784e-21
6.45149e-21
9.64254e-21
1.10145e-20
9.13168e-21
-2.35262e-20
-5.71118e-20
-2.79397e-19
-1.65521e-19
-5.5658e-19
-7.59802e-19
-4.29748e-19
-5.03532e-19
3.69095e-18
7.58804e-18
1.62805e-18
2.37914e-17
3.69238e-17
5.04523e-17
6.18504e-17
-8.86631e-17
-2.49684e-16
-1.26056e-15
-2.05913e-15
-6.90393e-16
-3.77772e-15
-5.00543e-15
-2.96576e-15
9.22385e-16
4.2261e-14
8.12226e-14
2.07101e-13
3.08927e-13
1.34059e-13
1.44966e-13
4.38251e-13
4.49474e-13
4.36056e-13
-5.5033e-16
5.68148e-13
9.61356e-14
-3.85091e-12
-7.4414e-12
-7.91809e-13
-1.3171e-11
-3.02887e-11
-4.22813e-11
-2.1617e-11
-5.51303e-11
-5.47386e-11
-4.09425e-11
-6.67603e-11
1.54405e-11
4.93559e-10
8.9577e-10
1.33818e-10
1.48599e-09
3.31697e-09
4.3801e-09
5.55941e-09
5.77282e-09
3.4933e-10
-5.93881e-09
-1.85061e-08
7.58018e-10
4.27313e-09
-3.95542e-08
-1.35118e-07
-1.98621e-07
-3.58591e-07
-4.31786e-07
-7.09991e-08
-4.75723e-07
-3.91473e-07
9.88619e-07
2.30595e-06
-8.79745e-08
4.30486e-06
1.26111e-05
1.76946e-05
7.07994e-06
2.33132e-05
3.70504e-05
4.13367e-05
4.22256e-05
2.86774e-05
2.14574e-07
1.06186e-05
-9.3095e-05
-0.000201628
-2.26037e-06
-2.35516e-05
-0.00069889
-0.00101356
-2.01092e-29
-1.44554e-19
3.66619e-09
-8.28599e-12
-6.02093e-12
-4.15735e-12
-3.57575e-12
-4.05243e-12
-2.00566e-12
-2.8981e-12
-9.8209e-13
-1.66263e-12
-3.26483e-13
-4.15368e-13
-8.98359e-13
-1.4858e-13
-4.24542e-13
-1.25642e-12
-6.96713e-13
-6.13091e-13
-6.88834e-13
2.72814e-12
5.04154e-13
9.08447e-12
3.49175e-12
1.64894e-11
7.96609e-12
2.06192e-11
1.16151e-11
5.99148e-12
9.38223e-12
-4.10469e-11
-9.21666e-12
-1.19177e-10
-4.60521e-11
-1.06599e-07
-2.03577e-19
-6.78725e-19
-1.48182e-10
-8.13177e-11
-5.70065e-11
-4.17783e-11
-2.41794e-10
-2.69592e-11
-2.06954e-11
-1.8535e-11
-1.18604e-11
-3.25904e-08
-4.16954e-08
-4.56087e-15
-1.19147e-14
-3.71841e-12
0.705911
0.885884
2.69481e-11
3.27896e-11
2.50207e-06
2.14526e-06
9.83667e-09
3.37536e-08
1.00892e-12
-2.52862e-07
-7.05867e-17
-1.88915e-17
-7.23364e-17
2.9496e-10
0.000280458
-1.95543e-11
-2.80096e-07
-4.18663e-07
-4.87779e-19
-1.64605e-19
-5.0071e-20
-2.8142e-20
-7.37026e-18
-2.42961e-17
-6.59269e-17
-3.58061e-13
-6.01243e-10
7.68019e-10
6.89513e-12
-1.49165e-29
-3.21334e-29
2.18584e-20
9.37109e-21
1.88599e-17
3.427e-17
5.49135e-18
-5.53577e-17
-6.01481e-17
-1.80913e-30
-7.48174e-11
3.79187e-10
1.13022e-12
4.44674e-09
3.56161e-09
1.97208e-10
9.60929e-11
1.95357e-24
4.84478e-25
7.66305e-25
-2.02835e-10
-9.50468e-11
8.2111e-17
2.78235e-16
-6.92249e-18
4.76376e-16
-3.21213e-07
-1.22299e-11
2.6263e-09
8.62012e-10
8.01649e-12
-9.17096e-14
-6.52121e-12
-1.48362e-12
1.20847e-11
3.72381e-12
1.98966e-05
-4.05336e-12
-7.01034e-12
1.2062e-06
4.85706e-06
-1.56931e-07
-3.95161e-26
0.0292299
9.14529e-06
0.00021277
-9.95306e-05
0.00106891
0.000533757
0.00178431
0.000951441
0.00254397
0.00141176
0.00322679
0.00184138
0.000760911
0.00102442
-5.27108e-07
-6.40155e-07
-0.00210048
-0.00262567
-1.29346e-26
6.41164e-30
-2.62926e-17
-4.34027e-17
4.23709e-11
2.9127e-10
-1.08478e-05
-1.37461e-05
-8.42971e-19
-1.2128e-18
-1.29576e-18
6.60702e-19
-1.46587e-18
5.12206e-08
1.64826e-07
-2.4825e-16
-0.00295623
0.00763886
0.012217
9.28714e-28
-7.1709e-28
1.08294e-27
1.19743e-27
3.7934e-28
5.14372e-28
0.612828
0.678637
0.906186
2.58936
3.72242e-18
1.46585e-18
1.29698e-18
0.273426
-1.96199e-15
-7.26457e-15
7.54495e-12
-4.68326e-13
-2.80926e-13
-1.65246e-12
-1.37305e-12
-3.92209e-12
-3.83312e-12
-6.18354e-12
-7.99838e-12
2.53938e-12
-3.47573e-12
-8.00842e-12
-2.76704e-12
-7.64494e-12
-1.89654e-12
-6.78352e-12
-1.54985e-11
-1.07551e-12
1.2556e-07
4.65273e-09
2.08328e-09
3.82371e-09
1.63826e-09
2.9452e-09
1.20727e-09
2.11874e-09
8.29616e-10
1.41584e-09
6.72289e-10
5.27932e-10
8.71924e-10
2.35395e-09
1.39781e-09
3.80922e-09
2.17204e-09
5.99274e-09
3.26479e-09
1.10317e-09
1.55791e-09
4.7332e-09
2.09054e-09
6.5903e-09
2.62254e-09
6.7201e-10
6.02236e-10
2.97643e-09
3.49089e-10
-1.18626e-10
-4.39376e-10
-2.47875e-10
-4.24592e-10
-1.73874e-10
-2.53149e-10
2.81424e-09
-6.68944e-10
-3.39215e-10
-1.01743e-10
-1.05243e-10
-1.09697e-10
-1.82644e-11
-6.37975e-12
-9.76288e-10
0.658507
0.836666
4.47615e-09
5.27324e-09
1.3878e-11
1.15533e-11
4.40065e-09
2.16119e-09
1.18842e-09
1.00418e-09
5.59972e-10
4.40955e-10
-8.19411e-31
2.49678e-10
6.27826e-12
1.56279e-11
1.534e-11
2.68064e-11
4.52165e-29
3.08054e-10
1.11949e-11
1.53841e-11
-1.643e-21
3.27822e-21
1.01584e-26
-5.88133e-30
2.48704e-19
8.97204e-20
6.18376e-17
6.3873e-16
-5.00935e-10
8.60513e-11
-9.75385e-10
-5.27542e-12
-3.74607e-13
2.50837e-13
3.28405e-13
1.70423e-13
1.49949e-13
-8.08077e-26
-8.75206e-26
1.24666e-17
4.02319e-18
-2.48892e-10
-1.3189e-10
-4.04534e-11
-6.36351e-11
-1.11512e-10
-7.35021e-11
4.00408e-11
2.05353e-11
0.0115449
4.25974e-14
2.38882e-14
5.50633e-09
2.21325e-09
0.00039749
0.000554939
4.09139e-11
1.86999e-11
4.65402e-12
3.77502e-12
1.92914e-11
1.91251e-12
-6.69918e-13
-1.89455e-12
-1.02828e-12
-3.13386e-12
-1.29766e-12
-1.63012e-12
-4.43543e-12
-1.69515e-12
-3.56417e-13
-2.08925e-13
-1.49771e-12
1.18216e-14
-1.06584e-12
2.85288e-13
-3.58984e-13
5.8206e-13
2.6329e-13
3.1554e-13
8.84737e-14
7.09151e-14
4.87183e-13
6.09897e-15
-5.98006e-15
4.04697e-14
-1.90201e-14
-9.94931e-15
-1.1887e-14
-2.89733e-14
-1.2044e-14
-2.70305e-15
-8.09894e-05
-8.17324e-05
6.37294e-06
5.04067e-06
-9.02836e-07
-9.21262e-07
1.62093e-14
2.39878e-10
2.40429e-10
-2.89829e-11
7.51691e-18
1.82832e-17
-5.40688e-30
-1.86044e-29
1.95479e-09
1.60655e-09
9.82155e-11
4.79679e-11
4.39022e-11
2.18083e-11
3.22676e-21
-1.21055e-22
1.82843e-10
3.11122e-10
-4.57055e-20
-6.78777e-20
1.87714e-10
4.07219e-19
1.38273e-16
6.94306e-16
1.54619e-15
1.06717e-15
2.32253e-11
1.54387e-11
2.08296e-09
1.72772e-26
1.1984e-24
-3.55318e-14
-3.8394e-11
1.69356e-16
-3.96097e-10
1.86582e-10
7.63015e-11
4.32201e-10
6.60705e-11
-1.31828e-14
-1.67787e-09
0.000200698
0.000292322
0.000687826
0.000372908
0.000149526
0.000197117
1.1053e-08
5.1804e-09
0.00375604
2.15048e-08
1.13292e-08
4.05525e-08
2.33756e-08
7.32332e-08
4.58105e-08
1.24453e-07
8.64103e-08
1.5539e-11
9.15296e-11
1.20062e-10
3.06025e-10
3.0414e-10
4.50322e-10
6.02698e-10
-1.48264e-10
-1.00959e-09
-5.97052e-09
-7.78038e-09
-2.06184e-08
-2.07336e-08
-3.64982e-08
-2.46309e-08
1.48616e-08
6.22956e-08
3.36232e-07
4.23047e-07
-4.12588e-08
5.05024e-10
1.14362e-06
1.14698e-06
1.04882e-06
4.79061e-07
1.05055e-06
1.74697e-06
1.12617e-06
9.04563e-07
2.02444e-07
1.57697e-07
3.19367e-07
2.77046e-07
4.96994e-07
4.5782e-07
7.48285e-07
-1.28496e-18
-4.73872e-14
-9.79095e-21
9.73407e-26
-2.50182e-17
2.73056e-31
4.18224e-31
6.4625e-16
6.0256e-16
-9.49724e-16
-2.74402e-15
2.77144e-21
2.83481e-21
1.04956e-28
6.39337e-17
-4.35917e-15
-1.72812e-14
-1.6884e-14
-5.43023e-15
-1.42442e-14
-3.90048e-07
-2.18143e-06
1.00677e-09
2.63914e-09
4.73531e-18
1.96542e-24
5.56165e-24
-3.30256e-12
4.18832e-07
9.70096e-07
0.733748
0.993392
-1.24198e-10
-2.50958e-19
1.47617e-15
0.00373025
0.000430425
0.000232903
7.87288e-05
0.00182686
-1.88229e-15
-5.16752e-15
0.505033
-1.75479e-18
8.02882e-06
1.65293e-05
1.15822e-05
-1.72886e-12
-3.87546e-12
-9.03572e-09
7.22508e-07
1.02384e-06
0.00391483
0.0202961
9.52737e-28
0.575366
0.742087
1.03879
7.80561e-06
-1.46814e-06
-1.24614e-06
6.33699e-12
6.4073e-12
-1.02457e-14
-0.00395905
-0.00343163
-0.00435789
-0.00312172
6.27212e-28
-3.57224e-12
-6.45298e-06
-5.58465e-06