/*--------------------------------*- C++ -*----------------------------------*\
  =========                 |
  \\      /  F ield         | OpenFOAM: The Open Source CFD Toolbox
   \\    /   O peration     | Website:  https://openfoam.org
    \\  /    A nd           | Version:  6
     \\/     M anipulation  |
\*---------------------------------------------------------------------------*/
FoamFile
{
    version     2.0;
    format      ascii;
    class       volScalarField;
    location    "6048000";
    object      Cw;
}
// * * * * * * * * * * * * * * * * * * * * * * * * * * * * * * * * * * * * * //

dimensions      [1 -3 0 0 0 0 0];

internalField   nonuniform List<scalar> 
11831
(
0
0
0
0
0
0
0
0
0
0
0
0
0
0
0
0
0
0
0
0
0
0
0
0
0
0
0
0
0
0
0
0
0
0
0
0
0
0
0
0
0
0
0
0
0
0
0
0
0
0
0
0
0
0
0
0
0
0
0
0
0
0
0
0
0
0
0
0
0
0
0
0
0
0
0
0
0
0
0
0
0
0
0
0
0
0
0
0
0
0
0
0
0
0
0
0
0
0
0
0
0
0
0
0
0
0
0
0
0
0
0
0
0
0
0
0
0
0
0
0
0
0
0
0
0
0
0
0
0
0
0
0
0
0
0
0
0
0
0
0
0
0
0
0
0
0
0
0
0
0
0
0
0
0
0
0
0
0
0
0
0
0
0
0
0
0
0
0
0
0
0
0
0
0
0
0
0
0
0
0
0
0
0
0
0
0
0
0
0
0
0
0
0
0
0
0
0
0
0
0
0
0
0
0
0
0
0
0
0
0
0
0
0
0
0
0
0
0
0
0
0
0
0
0
0
0
0
0
0
0
0
0
0
0
0
0
0
0
0
0
0
0
0
0
0
0
0
0
0
0
0
0
0
0
0
0
0
0
0
0
0
0
0
0
0
0
0
0
0
0
0
0
0
0
0
0
0
0
0
0
0
0
0
0
0
0
0
0
0
0
0
0
0
0
0
0
0
0
0
0
0
0
0
0
0
0
0
0
0
0
0
0
0
0
0
0
0
0
0
0
0
0
0
0
0
0
0
0
0
0
0
0
0
0
0
0
0
0
0
0
0
0
0
0
0
0
0
0
0
0
0
0
0
0
0
0
0
0
0
0
0
0
0
0
0
0
0
0
0
0
0
0
0
0
0
0
0
0
0
0
0
0
0
0
0
0
0
0
0
0
0
0
0
0
0
0
0
0
0
0
-2.2736e-49
1.66352e-24
7.40447e-24
-1.73828e-47
-1.15994e-31
-7.01924e-49
-4.04147e-18
-2.29807e-47
9.93481e-52
-1.05698e-47
-1.48524e-19
1.87949e-29
-2.62662e-14
-3.97318e-48
-2.21085e-38
-9.9612e-50
-8.85672e-35
-3.91959e-49
-2.54061e-14
4.945e-52
-1.20961e-49
1.36329e-50
-1.31075e-11
-1.92525e-45
-1.98297e-54
9.35852e-51
1.21878e-11
-4.52751e-40
-6.54401e-52
9.68087e-50
-6.92158e-52
1.83135e-09
2.78294e-51
1.96387e-44
-7.48438e-57
-3.58912e-09
2.16722e-53
-1.49982e-54
-2.27458e-52
2.261e-08
9.61105e-53
-1.00892e-48
-7.77138e-60
-9.6952e-08
9.66655e-55
1.52859e-60
-6.68062e-54
-1.81693e-07
7.6086e-50
-1.16613e-21
2.29381e-47
-7.66059e-27
2.79456e-54
2.78346e-52
-8.15641e-29
6.71162e-49
6.48849e-20
3.26456e-47
6.33257e-34
6.95325e-48
3.60557e-49
3.02964e-61
8.63313e-35
3.86205e-16
2.50111e-07
-2.13911e-51
3.22818e-16
1.48672e-47
3.62564e-56
-2.58675e-56
1.98599e-64
3.13126e-07
2.32028e-56
-1.74947e-63
-9.57745e-56
7.49707e-08
-3.3909e-49
1.03204e-37
1.58271e-50
-1.6694e-42
-2.86404e-47
-7.40345e-52
7.09619e-41
-3.75992e-50
1.9469e-49
1.34782e-13
2.31054e-55
-6.3848e-53
-1.39269e-12
3.14879e-10
3.15864e-50
-5.59191e-11
-4.19503e-58
1.13926e-57
6.5379e-08
-5.52982e-66
9.7841e-58
1.48542e-57
3.10976e-66
1.37175e-07
9.28226e-57
8.63717e-54
3.94861e-52
-9.54862e-48
1.64928e-55
-2.57567e-61
-5.98289e-54
-1.07896e-52
1.64971e-53
-2.58672e-51
3.78783e-55
5.48167e-54
-4.40079e-50
-5.93093e-24
1.00591e-20
1.49264e-49
-4.83417e-33
2.64876e-48
-3.5212e-47
-3.9122e-22
-3.16997e-49
-2.0473e-26
1.73939e-49
2.64131e-36
3.1974e-47
2.37165e-24
-9.72619e-27
-1.38756e-47
2.50574e-36
-6.79062e-49
1.67162e-50
5.26737e-54
2.91185e-42
6.38298e-08
-3.99151e-17
-2.12576e-48
9.16293e-30
-5.05025e-51
2.34628e-15
-1.47016e-48
4.07831e-51
-9.39411e-09
3.74911e-12
-2.31211e-60
-8.76102e-50
-1.21939e-62
-4.28405e-58
8.30586e-51
1.27674e-54
3.62535e-07
4.58132e-08
-1.42351e-32
-1.46154e-07
2.73851e-48
3.40359e-30
-1.48411e-17
1.56009e-48
7.2675e-54
7.04619e-16
5.62391e-13
-4.45775e-52
3.61627e-19
1.04413e-47
-2.0174e-07
-1.74132e-60
9.36445e-59
5.89454e-09
-1.60443e-69
-4.02822e-50
-1.30389e-48
-1.81747e-48
-8.68992e-48
-6.99616e-48
-3.09572e-47
2.72796e-47
1.65357e-46
4.24394e-46
2.35781e-45
2.22447e-45
1.13387e-44
5.21719e-45
2.01503e-44
5.79834e-44
7.35812e-44
-2.51956e-43
-1.43097e-42
-2.84034e-42
-1.54887e-41
-1.11191e-41
-5.74866e-41
-9.08784e-42
-2.38696e-41
2.30506e-40
1.31063e-39
2.11016e-39
1.13107e-38
7.26614e-39
3.68106e-38
5.91591e-38
1.83848e-37
2.9695e-37
9.10246e-37
1.46413e-36
4.39024e-36
7.08528e-36
2.02635e-35
3.36322e-35
8.36232e-35
1.58344e-34
2.80095e-34
7.53771e-34
9.11499e-34
3.6005e-33
2.6019e-33
1.70486e-32
5.54358e-33
7.93327e-32
-1.0262e-32
-3.29612e-31
-1.74923e-30
-2.70909e-31
-9.13291e-30
-2.48025e-30
-4.69831e-29
-5.30367e-29
-2.39002e-28
-2.378e-28
-1.06064e-27
-5.95555e-28
-2.18109e-27
-4.63586e-27
-6.48286e-27
7.75797e-27
4.51027e-26
7.80832e-26
3.81927e-25
2.46643e-25
1.83538e-24
1.2938e-24
8.59976e-24
5.96079e-24
2.51063e-23
3.89983e-23
1.04572e-22
2.03825e-23
3.90549e-23
4.246e-22
-5.80927e-23
-1.11437e-21
-5.63825e-21
-1.42631e-21
-2.74215e-20
-2.99055e-20
-1.31891e-19
-8.99633e-20
-3.53652e-19
-5.69111e-19
-1.35553e-18
-5.03479e-19
-1.24944e-18
-5.13694e-18
-2.54778e-18
-1.89353e-17
-1.61912e-18
3.18833e-17
1.56076e-16
3.72765e-17
7.25927e-16
7.89831e-16
3.32782e-15
3.23963e-15
1.37293e-14
1.09358e-14
4.27477e-14
2.85267e-14
5.53431e-14
1.63565e-13
2.1739e-13
6.12899e-13
8.35376e-13
2.24725e-12
3.14083e-12
8.05605e-12
1.15416e-11
2.82136e-11
4.14043e-11
-3.31853e-38
9.64613e-11
1.4488e-10
3.21704e-10
1.84989e-10
4.9447e-10
1.8818e-10
6.59254e-10
2.03283e-10
7.39096e-10
5.88039e-10
2.95813e-10
1.74508e-10
8.94366e-10
3.96237e-10
6.72302e-10
8.35256e-11
1.13555e-09
4.47008e-10
3.94084e-10
-6.29543e-11
1.22268e-09
4.34803e-10
-8.78049e-11
1.12549e-09
3.54935e-10
-2.44654e-10
-7.02559e-10
8.59834e-10
2.37941e-10
-3.58334e-10
-1.10527e-09
5.32973e-10
1.27231e-10
-3.50955e-10
2.58083e-10
5.0846e-11
-1.19784e-09
-2.04713e-10
8.83464e-11
1.18549e-11
-7.94292e-10
1.18782e-11
-2.37643e-12
-7.52931e-12
-1.76629e-10
-1.15148e-11
-6.2957e-12
-1.96307e-12
-2.05599e-12
-8.20608e-13
-4.89697e-13
-2.32441e-13
-8.97383e-14
-4.96241e-14
-1.21654e-14
-8.17676e-15
-8.33193e-16
-9.41854e-16
1.64942e-16
-2.71625e-17
1.1414e-16
2.71083e-17
3.82945e-17
1.38079e-17
8.38042e-18
3.83556e-18
1.32927e-18
7.43804e-19
1.43003e-19
1.05357e-19
4.62265e-21
1.53046e-10
9.58093e-21
3.42546e-10
-1.01104e-09
6.19253e-16
-2.21081e-20
-1.35336e-20
6.87853e-10
-4.48084e-09
1.9601e-10
-4.17654e-20
-8.89436e-21
1.07191e-09
-1.75586e-08
-2.71271e-10
-6.30091e-08
-1.55102e-20
-1.62767e-21
-1.28018e-08
-2.10007e-07
-1.2613e-21
2.19948e-22
-6.88415e-08
-6.62763e-07
-2.80002e-07
-1.9761e-06
1.12546e-21
3.70994e-22
4.00921e-08
-9.94934e-07
-5.50996e-06
-3.19596e-06
-1.40566e-05
7.78432e-22
1.06342e-22
6.99646e-23
8.37162e-24
8.76108e-24
-2.92413e-25
-9.53159e-06
-3.36382e-05
-1.17216e-26
5.92978e-25
-2.66976e-05
-7.68812e-05
-3.06546e-25
-6.95855e-05
-0.000168463
-4.54921e-26
-0.000165439
-0.000350774
-1.09105e-25
-3.41664e-05
-0.000358606
-0.000643795
-1.60701e-11
-3.22741e-26
-0.000733179
-0.00100463
0.000346254
0.00211775
0.00769998
0.0198438
0.0318282
0.0701674
0.0814392
0.161062
0.153094
0.145691
0.301328
0.284601
6.51173e-11
4.62576e-11
1.22846e-11
1.24463e-12
-2.52266e-13
-2.19992e-12
-7.32746e-13
-6.7826e-13
-2.10059e-13
-6.01196e-14
-1.26153e-14
1.27316e-14
5.34746e-15
5.21718e-15
1.65207e-15
6.48862e-16
1.47641e-16
-5.8835e-17
-2.53452e-17
-3.06419e-17
-9.35056e-18
-1.17773e-16
-4.1869e-18
-9.649e-19
2.61865e-19
1.11397e-19
1.38375e-19
4.11168e-20
0.533353
0.521849
-1.95413e-26
1.70123e-20
3.79818e-21
-1.2309e-21
-4.82644e-22
7.16114e-20
-9.35754e-27
0.890477
0.896367
6.27173e-20
-4.77646e-22
-1.40887e-22
-2.27061e-27
-2.01447e-27
8.91977e-29
7.83108e-28
1.40092
1.44159
-3.92908e-23
-7.89841e-24
-1.56412e-27
2.39211e-32
2.73732e-28
5.49208e-28
5.57051e-24
2.06697e-24
2.06787
1.72515
2.17645
1.33568e-24
4.09251e-25
6.44886e-29
5.5112e-29
4.45384e-24
-2.43728e-30
-2.09876e-29
3.31982e-26
3.17204e-27
1.27308e-25
-4.56914e-29
-6.50777e-27
-1.785e-27
-6.0565e-29
-4.80116e-28
-3.06114e-28
-8.33249e-29
-1.27549e-28
-2.28875e-29
1.17309e-31
-4.94175e-32
-6.31566e-30
-4.11319e-32
2.11204e-31
5.70407e-32
-1.61352e-32
1.53358e-32
1.04614e-32
2.87356
3.08264
-5.33167e-33
2.87271e-33
9.0264e-35
-6.94731e-30
-1.25362e-29
3.76259
4.08998
2.9428
4.02948
2.31985
3.30149
-1.27923e-30
-6.79132e-31
-1.97471e-30
1.47235
3.36326e-35
-7.74264e-35
2.21616
1.27236e-31
6.16421e-31
5.11163
0.706939
1.43235e-31
2.1659e-31
1.54911e-30
2.01119e-31
2.33514e-30
8.95277e-34
-2.14396e-35
-1.28265e-35
7.82386e-22
1.15297e-32
2.12442e-30
1.16382
-4.07065e-11
-3.65066e-11
7.94341e-21
3.08549e-20
4.86634e-21
1.30276e-20
2.48821e-21
4.76666e-21
1.12585e-21
1.29413e-21
4.12453e-22
2.54154e-22
1.26993e-22
1.10483e-23
2.74997e-23
-3.42032e-23
3.81139e-24
-2.87528e-23
-1.31054e-24
-1.68019e-23
-1.57953e-24
-8.30244e-24
-1.01735e-24
-3.67811e-24
-5.24107e-25
-1.4802e-24
-2.37776e-25
-5.40851e-25
-9.72594e-26
-1.8455e-25
-3.68935e-26
-5.36674e-26
-1.46049e-26
-1.25983e-26
-1.39761e-26
-3.9005e-27
-2.70445e-27
-1.07842e-27
-3.67739e-28
-2.44811e-28
3.81761e-29
-4.0963e-29
6.1409e-29
-3.05843e-30
3.44632e-29
2.87338e-28
1.10983e-28
7.04656e-28
2.42943e-28
4.02874e-29
8.0681e-29
4.36975e-28
1.36505e-28
2.59227e-29
4.15053e-29
2.0198e-28
5.86369e-29
1.23049e-29
1.66445e-29
-7.66582e-29
3.56216e-30
4.62442e-30
2.02036e-29
5.40925e-30
1.25879e-30
1.42112e-30
5.73516e-30
1.45994e-30
5.57084e-30
1.38014e-30
3.65985e-31
3.36153e-31
1.1893e-30
2.81383e-31
8.05744e-32
6.55847e-32
1.90183e-32
1.50664e-32
4.42236e-33
3.41279e-33
9.34288e-31
1.01357e-33
7.62578e-34
2.29071e-34
1.68151e-34
5.27267e-34
1.13576e-34
3.66026e-35
2.41663e-35
7.05886e-35
7.86821e-36
5.08084e-36
-1.61408e-25
1.67081e-36
1.05581e-36
-3.66665e-36
3.22322e-37
1.49974e-36
3.50593e-37
0.213429
4.6447e-37
-1.14796e-10
-7.141e-11
-4.31539e-31
1.00223e-31
0.433092
1.80305e-36
-2.6783e-10
-1.25784e-10
2.16914e-37
7.27156e-38
1.15084e-37
1.88119e-38
3.02145e-43
2.86958e-34
-0.00326291
-5.54065e-10
-1.93861e-10
-1.41432e-30
-4.16569e-30
6.05611e-39
-3.2572e-39
-1.00842e-09
-2.52334e-10
4.40711e-38
1.49116e-38
2.32387e-38
0.0698723
0.738448
-1.01999e-17
-1.59927e-09
-2.49504e-10
-2.20462e-09
-1.13196e-10
7.54468e-11
2.40846e-10
1.0268e-10
1.86522e-10
6.12564e-10
2.7711e-10
4.19353e-11
3.43821e-11
-2.65714e-12
-1.33266e-11
-6.74275e-12
-1.18646e-11
-3.57018e-11
-2.35391e-12
-2.2648e-12
-8.65978e-14
2.62783e-13
1.7553e-13
3.48152e-13
7.41239e-14
6.64732e-14
2.82864e-15
-6.98045e-15
3.17811e-14
-4.38403e-15
-2.08981e-14
-2.53321e-14
-2.15218e-30
-1.31646e-29
-0.0497739
4.81066e-39
0.196025
1.10319
-5.40856e-23
3.02421e-39
-8.52677e-40
-6.95298e-40
0.371541
1.47406
9.84675e-40
7.09241e-39
-4.16562e-14
-1.00153e-13
-1.8223e-30
-2.89137e-32
-1.91088e-29
0.573899
1.78635
6.06726e-40
1.99338e-40
1.23945e-37
-1.30519e-05
-6.75056e-22
-3.14994e-34
5.00821e-25
-5.85859e-36
-2.00189e-40
-1.56143e-41
-4.83556e-41
1.68907e-41
-3.89609e-09
5.81297e-41
0.768197
1.98877
-4.82353e-14
-2.05184e-13
3.05008e-31
1.03714e-31
-1.91124e-15
1.20441e-40
3.99211e-41
4.96335e-42
2.91225e-42
0.143423
0.919648
2.06713
-4.66359e-15
1.68429e-09
-3.95332e-14
-2.55638e-13
-1.55848e-15
1.50003e-31
1.41103e-32
1.00458
2.01769
3.32063
2.86442
3.97007
1.79704
2.36625e-41
7.91113e-42
1.26448e-41
8.74014e-43
3.33087e-44
2.52786e-42
-1.6221e-15
-1.32781e-15
2.30559
1.47831
1.33543e-33
-2.22751e-33
-1.59482e-14
-2.2456e-13
-8.05287e-11
3.52366e-35
1.55168e-42
3.83364e-42
5.00084e-43
1.26229e-44
-1.46798e-44
3.75987e-21
-0.0454364
-0.0317372
-0.0230383
-0.00892239
-0.0045712
-8.03744e-05
0.00051187
0.000615036
0.000478737
0.000228319
0.000127586
1.54298e-05
-2.04515e-06
-9.46524e-06
-7.17855e-06
5.16159e-05
1.74431
1.13161
-6.76044e-33
-1.05356e-33
-2.04929e-32
1.4226e-14
-1.06163e-13
-1.22633e-12
-1.04733e-12
-3.25715e-12
-4.77819e-12
-4.36397e-12
-1.11067e-11
2.65806e-11
-9.5365e-12
2.60701e-10
1.35581e-10
1.13564e-09
9.81774e-10
2.5826e-09
3.66189e-09
2.81679e-09
7.30356e-09
-2.05914e-08
1.99889e-09
-4.25156e-08
-1.58547e-07
-8.85478e-08
-2.56458e-13
1.41076e-10
2.81187e-09
-3.42137e-06
-1.89311e-06
-8.04299e-16
-2.11748e-16
-3.85962e-29
-1.16576e-28
5.76082e-30
-3.39776e-28
1.70629e-27
2.27328e-29
1.78825e-26
1.41317e-26
1.41435e-39
3.01287e-43
9.79211e-44
-4.53638e-45
4.46574e-45
-2.04229e-45
-6.1615e-45
3.51419e-46
1.33931e-45
-1.79872e-07
4.67019e-08
-5.82176e-07
-4.94444e-07
-2.00246e-16
-4.20913e-12
-9.01026e-33
-5.89629e-32
1.73032e-08
1.23525
0.810586
0.647614
2.79754e-46
1.2246e-07
8.62255e-08
0.472681
8.75187e-47
-1.16885e-06
-1.49181e-06
5.79255e-44
1.89821e-44
-1.82644e-12
9.17054e-46
0.322466
1.50754e-07
3.51284e-08
1.69178e-08
5.33817e-08
6.24262e-09
2.9206e-08
1.61645e-09
-1.14592e-09
-8.11413e-10
-7.59118e-11
-5.07615e-10
-3.97625e-10
-2.74031e-10
-3.26891e-10
-1.31774e-10
-2.13432e-10
-6.02932e-11
-8.09146e-12
-8.10988e-13
-2.62992e-11
7.99488e-13
1.60757e-12
7.86892e-13
6.94322e-13
3.38704e-13
9.79427e-14
2.56672e-14
-9.45669e-15
-5.54108e-15
4.42037e-13
-3.27498e-15
-1.35144e-15
-1.14377e-16
1.60533e-18
-5.47917e-16
1.50203e-17
2.83401e-17
1.14831e-17
-1.98389e-16
-4.1833e-10
3.77881e-18
1.00909e-18
-6.05274e-16
0.547392
0.322282
-6.5592e-33
-7.4456e-32
-1.13807e-06
-2.526e-06
1.2746e-06
1.47044e-47
1.10295e-44
3.1926e-44
3.64368e-45
5.95749e-45
1.15297e-45
-2.2749e-19
-1.26347e-19
-1.63345e-17
-2.79405e-17
0.347082
0.206254
8.81105e-34
-4.99659e-32
3.37263e-47
1.79346e-45
-7.52664e-20
-2.90709e-20
-6.24302e-20
-1.12519e-20
-2.87995e-20
-4.22344e-21
2.22976e-22
1.48052e-22
-1.09708e-20
0.0795102
0.124264
0.0665924
0.0860736
0.0473635
0.0523738
0.0292714
0.0278493
0.0159845
0.0127863
0.00759172
0.00504728
6.75194e-41
-3.05816e-27
-7.71344e-28
-3.02258e-07
7.06923e-06
-4.3913e-09
-3.13368e-06
-4.23901e-06
-2.94387e-06
-5.5633e-06
6.99466e-06
-4.92516e-06
-5.66506e-06
-8.91864e-06
2.78311e-05
9.55911e-07
0.000150843
7.32087e-05
-2.51492e-40
0.0203173
0.000402771
0.000275459
1.7455e-22
6.22807e-23
-6.12729e-28
-2.75921e-28
2.0803e-45
1.2891e-23
2.57014e-24
-1.95129e-19
-1.23495e-47
3.50009e-46
6.76721e-29
-5.97531e-29
0.00312091
0.00170189
1.95956e-18
-1.60608e-18
0.000640574
0.000568045
-1.09369e-05
0.206633
0.124816
-7.42922e-34
-9.61411e-35
-1.18517e-34
-1.55586e-36
-1.1007e-35
1.54939e-36
-2.72906e-37
5.12256e-37
1.49341e-37
8.15647e-38
5.1016e-38
7.55834e-39
8.56901e-39
2.3772e-40
8.28226e-40
-8.50445e-41
6.74125e-38
3.54897e-41
8.79933e-40
9.08603e-41
4.35756e-40
-2.9715e-41
-5.04252e-41
8.88436e-41
7.69529e-41
-4.7292e-42
-1.05502e-42
3.56115e-41
-9.61013e-41
5.26939e-43
1.85546e-42
3.86996e-42
-1.43826e-40
2.77062e-43
-2.82848e-17
-3.54547e-18
-1.94923e-17
2.11309e-43
1.17315e-32
1.4936e-32
-3.95637e-47
2.2593e-28
6.76314e-32
-2.37683e-29
-5.31936e-30
-4.79318e-30
-1.94852e-30
-6.46025e-31
-3.61924e-31
-5.73541e-32
-4.57366e-32
-1.58543e-33
-3.77359e-33
7.93547e-34
-5.81213e-35
-3.17921e-33
3.10411e-34
-2.45372e-34
-1.79775e-33
-2.0907e-34
-7.4372e-34
-1.17256e-34
-2.22899e-34
-4.99599e-35
-3.91771e-35
-1.60154e-35
3.19974e-36
-1.31405e-35
-2.96549e-36
9.82152e-36
5.57865e-39
7.34931e-36
5.16323e-37
4.05095e-36
1.77789e-34
4.1464e-37
1.82449e-36
1.0045e-35
2.30021e-36
6.10762e-37
3.07262e-37
-2.12129e-37
1.42514e-29
-1.91459e-36
-1.97436e-36
-7.25872e-38
-1.17318e-36
-9.56944e-38
-5.606e-37
-6.12385e-38
-2.22064e-37
-3.76878e-18
-8.31806e-18
-2.16342e-35
5.18594e-46
-2.96569e-38
-7.48093e-38
-3.36732e-37
-5.63413e-38
2.70088e-45
-2.14566e-38
-3.30089e-39
1.1008e-37
7.22938e-38
-1.62583e-24
-7.37767e-25
3.20381e-25
-3.1274e-25
-3.63523e-26
-1.07955e-25
-4.07922e-26
-1.15969e-26
1.32719e-27
6.47204e-28
-2.79188e-27
2.88041e-28
1.54497e-28
5.36856e-29
1.19656e-28
1.88082e-29
-2.86359e-31
-2.25417e-31
6.53818e-30
-1.12439e-31
-1.72174e-31
-5.67331e-32
-4.84443e-32
-1.79136e-32
-2.6191e-33
-5.26814e-34
-1.12742e-41
-1.10365e-40
4.39491e-39
3.52131e-38
2.90117e-37
1.05756e-37
6.25257e-37
1.68682e-37
3.50711e-38
3.50866e-38
5.45993e-38
-1.32717e-38
4.86247e-39
-1.35843e-38
-1.56134e-37
-6.41015e-38
-7.03328e-39
-2.38974e-38
-2.97488e-39
-8.28335e-39
-5.36024e-38
-1.58141e-38
-2.67261e-39
-4.39879e-39
-1.89581e-38
-3.32934e-39
-3.95232e-39
1.32467e-39
-4.28588e-40
1.02464e-39
4.85608e-42
4.57317e-40
6.79154e-47
1.75262e-43
7.52957e-18
2.74138e-18
3.17033e-18
3.37722e-19
-2.25843e-21
-7.72688e-20
-1.81932e-19
-3.60055e-20
-2.74071e-20
-3.68071e-22
4.34436e-21
1.78133e-21
2.17853e-21
2.51393e-22
2.62181e-23
1.61379e-21
-2.37047e-22
2.93433e-22
-9.59234e-23
-5.19814e-22
-1.22936e-21
-1.9847e-32
6.20944e-10
-6.92796e-06
-4.57752e-39
-1.45795e-41
-3.374e-41
1.02073e-46
-1.28609e-46
8.99602e-47
2.84421e-42
0.115141
0.158724
0.071139
0.0672133
0.0386632
-3.60332e-44
-3.40088e-44
-1.0352e-44
-5.71573e-22
-2.66357e-21
2.72607e-32
9.67919e-32
3.49588e-33
-4.59794e-48
-1.55882e-48
-3.28652e-24
4.7282e-34
1.77266e-34
3.48416e-41
1.70805e-40
0.000397998
0.000727408
2.65036e-38
0.000578828
0.00110555
0.00182033
0.000483072
8.46606e-34
1.14822e-34
1.52621e-34
6.2676e-36
-1.85625e-35
-8.21217e-36
-2.39395e-35
-3.28734e-36
-1.74891e-36
-2.95673e-37
-2.34016e-37
-1.04927e-38
-2.07401e-38
2.95968e-39
-7.30651e-40
1.14823e-39
-9.6552e-42
-0.00144389
2.21812e-49
5.55632e-50
-4.11996e-36
0.000673922
0.00100527
-2.65695e-18
-2.32287e-18
1.82819e-41
5.80535e-41
4.0877e-40
1.24152e-40
1.44221e-46
6.78954e-35
2.27212e-35
1.85502e-41
3.6452e-41
2.21662e-40
6.16398e-41
1.0394e-41
1.67491e-41
0.0326869
2.05156e-40
-4.31156e-46
-5.12535e-47
-5.07385e-41
1.61398
3.03691e-10
5.73105e-10
3.93754e-14
9.5701e-13
1.40737e-12
-2.17245e-13
1.30393e-26
1.16785e-09
5.59154e-35
1.13837e-20
0.000397976
0.000648525
0.000222401
0.000469493
-8.26231e-41
4.95324e-38
0.000642192
6.76314e-47
1.98888e-47
1.2941e-47
-2.14493e-42
1.48708e-39
4.38592e-40
-3.45993e-39
-5.46828e-40
-5.68983e-39
-1.00921e-39
-5.1827e-39
-9.97283e-40
-2.63413e-39
-5.15208e-40
-6.83148e-41
8.87851e-40
8.0036e-39
4.78379e-38
5.09997e-38
2.82537e-37
9.10226e-39
3.52149e-38
6.80963e-39
1.53573e-38
3.05535e-39
4.36155e-40
2.79298e-40
-5.7948e-39
-3.61693e-38
-9.04859e-40
-3.84699e-38
-2.18533e-37
5.98909e-40
-1.54066e-37
-8.29554e-37
-3.82473e-37
-1.88084e-36
-1.7736e-40
-7.66361e-38
-0.00058398
8.94146e-17
-6.90825e-07
0.000387327
0.000527159
0.00021069
0.000263558
0.00010888
0.000125779
2.41784e-37
0.0807315
0.0834266
9.7201e-05
0.000282756
-1.17916e-44
-8.18178e-46
2.2611e-32
1.84486e-31
1.66186e-31
6.93835e-31
-3.12762e-22
-2.88596e-21
7.97089e-24
-1.40035e-45
4.78914e-50
1.43807e-50
0.0190391
0.0210898
-1.51326e-45
2.19661e-40
-7.03941e-37
-2.94222e-42
3.83704e-48
2.4526e-48
-0.00245788
-1.25951e-37
-2.69835e-38
5.35902e-05
0.000607738
0.000469231
3.88255e-26
5.00323e-27
2.00332e-34
2.88763e-42
4.45432e-42
0.000130273
0.00012787
3.39276e-23
3.49331e-40
-2.02624e-30
1.45933e-30
-2.90433e-37
5.75732e-05
-0.00126255
-0.000250507
0.0376179
0.0324823
5.19215e-33
7.83464e-43
1.16092e-42
7.33083e-49
4.60461e-49
8.88585e-52
3.73005e-52
3.29214e-06
-2.1521e-05
-2.10433e-11
-1.2514e-18
5.00161e-19
6.28923e-37
0.0104602
2.08462e-47
7.92053e-41
-5.06458e-41
0.0142621
-4.67476e-37
2.7207e-05
6.02232e-23
2.15931e-23
2.21185e-46
0.0108748
-4.19042e-19
-2.04429e-05
-4.34873e-05
-1.85706e-05
7.73173e-28
1.7879e-36
2.07977e-43
2.96849e-43
-1.15685e-46
-8.46897e-05
0.00042551
1.71471e-38
4.06916e-40
-1.4343e-39
2.5222e-05
-2.6646e-05
-7.53667e-05
-6.55341e-06
-0.00182936
1.56895e-42
3.8814e-43
2.72769e-41
3.18738e-41
4.75464e-43
1.3717e-41
-9.56523e-41
0.00544356
5.01153e-47
1.09475e-48
-1.61814e-52
-5.17344e-53
1.44396e-52
-1.67899e-53
5.45716e-53
1.83901e-51
1.6135e-38
-1.48499e-37
-2.5995e-38
2.53724e-05
1.58949e-14
1.35156e-14
2.75052e-27
-4.80852e-54
2.33302e-53
-2.61104e-54
7.45361e-44
9.44373e-44
1.38723e-49
8.5651e-50
2.71235e-49
-1.26287e-25
-1.62457e-25
-4.05651e-21
-2.75931e-29
-1.11354e-29
4.62463e-30
1.06523e-29
2.66636e-18
-4.37885e-36
-9.20437e-36
-2.25387e-35
-4.43218e-35
-1.1274e-34
-2.08804e-34
-5.53709e-34
-9.4438e-34
-2.66677e-33
-3.98341e-33
-1.26279e-32
-1.45994e-32
-5.9138e-32
-3.93955e-32
-2.72955e-31
-7.95462e-32
-1.23592e-30
1.92161e-31
-5.39109e-30
4.24379e-30
-2.21708e-29
3.74252e-29
6.75081e-29
3.68488e-28
2.6008e-28
1.96407e-27
1.64002e-27
8.22037e-27
1.02531e-26
4.06118e-26
2.65287e-26
1.26557e-25
1.97753e-25
5.9567e-25
3.35838e-25
1.53701e-24
7.80869e-25
3.47937e-24
6.93881e-24
1.52862e-23
6.98809e-24
2.9869e-23
6.61929e-23
1.25748e-22
5.20288e-23
2.12724e-22
5.21187e-22
8.55499e-22
2.12564e-21
3.38231e-21
1.25078e-21
4.78463e-21
1.31383e-20
1.79601e-20
5.01089e-20
6.61056e-20
1.62809e-21
-1.425e-29
7.98339e-33
1.87518e-19
2.38428e-19
-2.72797e-32
7.70039e-20
2.67101e-19
8.41867e-19
9.08196e-19
2.67889e-19
8.76534e-19
3.0265e-18
2.79955e-18
9.8604e-18
8.71329e-18
3.13436e-17
2.63957e-17
9.71354e-17
7.77059e-17
2.92965e-16
2.21945e-16
-7.69254e-36
8.58787e-16
1.30209e-19
6.13882e-16
1.91483e-17
2.37728e-19
3.24772e-17
2.44258e-15
1.64075e-15
3.68092e-16
-0.00146929
0.012978
0.00788503
3.09982e-47
0.00530292
1.72153e-23
1.38692e-24
1.83928e-44
5.96421e-30
2.60048e-50
0.00269197
1.36401e-48
-3.50052e-42
-7.27826e-41
9.34077e-43
-1.08285e-37
-3.75212e-19
1.66511e-18
1.66135e-17
1.15064e-17
4.70411e-17
5.19971e-36
-5.11593e-42
-8.32082e-06
5.1217e-05
5.78312e-32
7.37299e-05
-3.3091e-05
-0.000111828
2.44913e-21
-0.000646082
-1.70632e-05
1.94865e-42
7.18779e-46
1.90737e-46
1.06545e-40
1.50532e-39
-6.52224e-39
-4.54279e-38
2.92397e-39
-0.00300064
-0.000833629
0.000379705
2.42918e-05
0.000247583
0.000227382
5.4223e-38
8.65968e-39
2.13053e-05
1.13647e-05
-1.21759e-36
3.3245
-1.06084e-05
-9.85167e-06
-6.4852e-06
3.56518e-22
-3.57309e-40
1.33478e-39
-1.5413e-40
1.96816e-40
-5.21866e-41
2.63638e-41
-1.26611e-41
3.02455e-42
-2.70885e-42
2.41338e-43
-5.46654e-43
-6.78407e-45
-1.06611e-43
-8.21413e-45
-2.98322e-43
-2.04204e-44
-3.14746e-45
2.23176e-44
3.12951e-45
2.44568e-40
-3.85389e-45
2.46032e-44
3.92238e-45
1.89549e-27
0.000563121
-8.24315e-25
-2.22984e-24
-6.89738e-26
-3.78621e-25
5.49501e-26
1.07103e-11
-2.87298e-13
-2.25433e-10
2.62615e-09
-1.24658e-46
0.898379
2.44088e-36
1.50405e-17
7.29568e-18
9.12582e-16
1.78612e-16
4.22682e-15
4.96223e-50
1.49781e-49
-1.22581e-24
-6.21574e-25
-1.55174e-24
1.1837e-35
3.69122e-36
2.77481e-29
-1.21558e-54
1.00255e-53
0.00248554
1.09451e-25
-1.79424e-42
-6.28534e-42
-3.78083e-41
-4.42158e-42
0.0248249
5.89157e-24
1.43836e-15
-4.79438e-16
-0.000133686
6.06725e-05
3.86513e-05
-0.0013696
-3.49562e-05
-0.000143778
2.1918e-35
6.43349e-36
-1.93489e-28
-3.22571e-06
-6.92454e-07
0.000131295
0.000173864
0.00244855
0.00126372
0.00237323
-3.27213e-48
-6.33192e-49
-9.63276e-49
2.83095e-30
2.96242e-29
-1.01815e-24
5.65006e-24
-4.86548e-43
-4.6934e-42
-1.34217e-41
2.69671e-13
0.149111
-3.26596e-09
1.52875e-35
-2.95985e-33
2.39092e-26
-3.32356e-43
1.03413e-39
4.22166e-40
3.13868e-05
1.50698e-05
3.6955e-05
1.43866e-05
1.01317e-34
-3.18571e-17
-3.98199e-16
1.02637e-15
3.994e-16
6.33548e-17
-1.41427e-24
9.31777e-46
2.36044e-46
-2.39993e-55
3.6803e-54
2.32261e-53
6.90339e-54
-5.29751e-53
-2.25318e-53
-6.4087e-52
-1.82853e-52
-6.54851e-52
-1.28293e-52
4.51485e-51
1.45935e-51
8.33253e-51
2.54575e-51
-1.72544e-50
-5.9496e-51
-1.87439e-49
-5.53122e-50
-2.76907e-49
-7.84287e-50
4.51145e-49
1.31448e-49
3.36212e-48
1.2434e-47
1.47005e-47
3.72165e-48
-2.31438e-47
-6.10034e-48
-8.72557e-47
-3.79615e-46
-1.45575e-46
-1.68602e-47
2.48256e-45
9.42659e-45
1.23679e-44
3.14472e-45
-1.57556e-44
-4.10038e-45
-1.08535e-43
-4.37459e-43
-4.63301e-43
-1.1141e-43
5.00768e-43
2.00474e-42
1.38771e-41
3.26217e-42
1.33755e-41
5.76205e-41
-4.77104e-41
-1.07061e-41
-2.81964e-40
-1.30023e-39
-6.04579e-41
-1.24873e-39
-5.54624e-39
-1.79283e-39
-4.84514e-39
5.913e-38
2.67803e-37
9.69677e-37
3.98246e-36
2.31088e-37
4.55558e-36
1.94611e-35
-1.34099e-35
-6.2702e-35
-3.65401e-34
-1.64159e-33
-1.48328e-33
-6.60721e-33
-3.30623e-34
-7.149e-33
-2.92875e-32
1.79966e-33
1.99741e-32
1.2261e-36
-1.2857e-31
1.37465e-31
1.48045e-30
7.12882e-30
7.97713e-31
3.35109e-29
3.46888e-29
1.4889e-28
1.51511e-28
6.3894e-28
1.13651e-28
1.98342e-28
2.70305e-27
-4.67539e-28
-2.23344e-26
-1.0681e-25
-8.05369e-27
-4.98605e-25
-5.74442e-25
-2.32095e-24
-1.03544e-24
-2.67569e-24
-5.99631e-26
1.08913e-23
5.26866e-23
2.20243e-24
-5.34861e-24
2.50812e-22
4.37423e-22
1.66494e-21
1.42257e-21
4.46495e-21
1.16996e-21
-2.63205e-21
-1.55888e-20
-4.73185e-20
-2.0305e-19
-7.98223e-20
-8.27939e-19
-7.30753e-19
-2.73779e-18
-3.15717e-18
-9.87946e-18
-7.11601e-19
4.87817e-18
4.5281e-17
1.98554e-16
-1.05605e-20
-1.16404e-17
2.71243e-16
9.99654e-16
8.41061e-16
7.02173e-17
7.18998e-16
2.39648e-15
-2.96668e-49
-4.31937e-43
-6.57364e-21
-4.68777e-16
-6.94412e-16
-1.68924e-15
-5.52501e-16
-2.45798e-15
-2.22216e-16
-1.95953e-15
7.63284e-17
-7.82073e-16
6.69752e-17
2.03461e-16
2.05964e-16
2.27573e-16
5.4749e-16
-2.47094e-15
4.68486e-16
-1.86854e-14
-6.99852e-15
-6.195e-14
-4.70529e-14
-1.13268e-13
-1.34575e-13
1.81673e-13
-2.20976e-13
2.44156e-12
5.49089e-13
9.84808e-12
5.33941e-12
2.04372e-11
1.87994e-11
8.36461e-12
3.48739e-11
3.65379e-35
1.11625e-39
5.47115e-39
1.81781e-44
3.01999e-45
6.14243e-46
4.9648e-46
1.08234e-43
9.3998e-47
8.08544e-47
3.16767e-46
5.27655e-47
5.09931e-38
2.926e-37
-2.82693e-27
2.33217e-29
3.01906e-25
9.82521e-06
4.56301e-06
2.69686e-50
7.74782e-50
3.53186e-35
9.89273e-36
-1.41073e-05
0.0222905
-1.33618e-25
1.40385e-35
-1.57434e-24
1.87031e-25
-4.77663e-24
2.7937e-37
-0.00151282
-4.45452e-19
1.0762e-34
3.35805e-35
6.7972e-29
1.50894e-28
8.11014e-45
1.46191e-43
-2.37267e-43
2.37675e-25
-1.21302e-23
1.32017e-15
5.86955e-05
9.69204e-05
1.42389e-12
-8.22085e-48
-3.3122e-47
-7.01758e-31
-5.11777e-31
-2.30447e-24
-4.6684e-24
-6.47973e-25
-2.41221e-42
-2.44106e-42
-1.47287e-49
1.62731e-08
1.77474e-07
-9.76636e-14
-0.000444916
0.000525562
0.001074
0.000563479
1.40129e-40
-2.34368e-42
-3.35041e-42
-2.13355e-10
-1.18082e-11
3.12865e-42
1.06193e-41
1.54479e-43
8.61202e-42
9.85515e-17
-8.49739e-31
1.54963e-36
1.59031e-36
1.77223e-46
2.99533e-47
8.70859e-48
5.01951e-48
1.54415e-47
2.61634e-48
8.40287e-05
-1.44617e-16
-1.82011e-16
-2.95699e-16
-1.47977e-15
-3.78689e-17
-6.26395e-49
1.1508e-16
-3.04972e-05
-0.000158132
-1.88136e-06
-0.000401427
-0.000530392
-0.000731307
-0.00120469
-0.000827356
-0.00174224
0.00160528
-0.000704862
-0.00295527
-0.00333702
2.97927e-34
6.17235e-35
-5.95234e-17
-2.17465e-15
-1.60896e-50
-4.74945e-53
-1.42022e-26
-2.9889e-23
6.48408e-44
3.75039e-43
5.15951e-06
1.63e-06
8.98955e-40
-8.23554e-39
1.30926e-38
-1.62724e-37
-8.59122e-38
1.98566e-37
1.09449e-36
-5.77334e-40
-4.90123e-11
8.461e-18
7.56445e-18
-9.30574e-47
-2.71218e-46
3.84282e-47
1.28568e-46
1.6499e-47
5.21291e-47
2.11081e-05
7.69598e-06
5.39674e-06
1.34085e-10
9.1663e-27
-7.7071e-29
-1.47899e-28
4.33772e-11
-7.78933e-27
-2.22464e-26
2.24004e-37
-5.62185e-21
-5.72597e-21
2.3705e-19
8.06597e-20
5.62891e-19
1.94942e-19
2.03185e-19
1.27834e-19
-3.60947e-18
6.6692e-20
6.50844e-20
2.2451e-20
3.00362e-20
7.61925e-21
1.29464e-20
-5.13814e-20
2.62577e-21
-9.62576e-20
0.0223773
0.00852822
0.011855
0.00378268
0.00411233
0.000844906
0.000467521
-0.000107013
-0.000397655
0.000985626
-0.000197725
-0.00028068
-0.000688198
-0.000327243
-0.000944643
-0.00029751
-0.00108304
-0.000217688
-1.11145e-05
3.4383e-05
-9.20075e-05
7.25133e-05
4.20583e-05
8.67592e-05
3.12471e-05
2.54728e-05
8.46519e-05
1.52848e-05
-1.69033e-07
-2.89548e-06
-1.75482e-06
-1.61413e-06
-4.46227e-07
-2.20387e-07
7.28479e-05
-1.29711e-06
-3.30038e-08
6.08889e-08
6.1693e-08
-6.00247e-07
2.21019e-08
1.47121e-08
-7.99292e-07
3.3972e-06
1.63358e-06
-1.68996e-19
-5.30953e-20
1.37356e-50
4.8145e-51
1.12923e-45
2.73124e-46
5.76649e-47
6.37281e-47
1.35958e-47
1.4357e-47
1.27247e-54
3.09432e-48
9.58873e-10
-1.01553e-09
6.51825e-09
-1.62521e-09
-3.59673e-49
-8.82605e-05
-7.05126e-10
-5.15727e-10
4.39118e-44
8.43758e-44
-7.53591e-42
-9.77432e-50
-2.65799e-28
-1.0016e-28
6.36295e-43
4.60904e-42
2.10213e-05
4.48336e-05
2.38342e-06
5.44337e-21
9.18386e-22
-9.10342e-24
-1.11905e-23
-4.42369e-23
-1.35577e-23
-1.13501e-45
1.03982e-43
-1.65643e-36
-1.88664e-36
-1.03058e-09
-4.20282e-10
4.86053e-11
-7.14452e-11
-1.5986e-09
-7.4272e-10
-3.06375e-09
4.94274e-14
-0.000101063
-6.16155e-24
-1.58211e-24
8.33299e-36
8.89851e-36
-0.00429959
-0.00612107
-1.43682e-09
-2.98603e-10
-5.56335e-12
2.57878e-11
-1.15107e-10
2.83305e-11
1.24e-11
7.79514e-12
2.23778e-11
3.99716e-12
-1.15006e-13
-3.70465e-13
1.36196e-12
-3.34298e-13
-1.44145e-13
-7.93882e-14
-2.35992e-13
-3.72127e-14
-1.50265e-13
-1.16282e-14
-8.13465e-14
-1.68563e-15
2.62136e-15
1.68841e-15
5.69707e-16
2.5573e-16
-4.03814e-14
-1.7504e-17
-1.93923e-17
7.84091e-17
-1.39304e-17
-6.23604e-18
-2.92427e-18
-8.34338e-18
-1.28008e-18
7.0335e-20
2.69973e-06
2.84235e-06
5.08e-35
1.36719e-35
7.52045e-34
2.16206e-35
2.17212e-17
1.14266e-07
5.04586e-08
5.23944e-11
-2.45992e-24
-9.06009e-24
-5.78191e-48
-5.80505e-47
-0.000349894
1.93012e-05
0.000448712
0.000239542
0.000264111
0.000113867
-7.83794e-31
-1.03664e-31
3.13994e-48
1.4266e-47
-2.20356e-29
-4.93051e-30
-7.38291e-05
-6.62786e-28
5.06697e-43
1.74529e-42
7.16971e-42
9.0694e-43
7.3765e-48
3.7494e-50
-0.000421776
3.55997e-43
6.6728e-43
-4.56938e-18
-1.91282e-10
1.33009e-45
-1.51232e-09
0.000729432
4.33336e-49
1.82789e-07
1.43118e-07
1.61373e-29
-4.30764e-41
-0.00522865
-0.00904271
-0.00280626
-0.0101026
-0.0115526
-0.0160644
4.34507e-35
4.91637e-35
0.419093
2.19865e-34
2.67784e-34
1.08682e-33
1.44078e-33
5.27097e-33
7.65382e-33
2.50146e-32
4.00957e-32
-1.05734e-17
-2.29959e-17
-5.87509e-17
-3.26858e-18
7.25148e-17
1.02919e-15
3.72867e-16
2.03016e-15
4.82058e-15
-6.03982e-16
-8.85222e-15
-8.12567e-14
-2.17366e-13
-3.58694e-13
-7.47177e-13
4.38383e-13
2.47449e-12
1.34646e-11
3.53549e-11
-1.4429e-13
7.22996e-16
5.15672e-11
1.0441e-10
2.13785e-11
9.12124e-11
1.96094e-10
-3.11943e-10
-1.2491e-09
3.05677e-10
1.16833e-31
2.06196e-31
5.52366e-31
1.02908e-30
2.55666e-30
4.94901e-30
1.15994e-29
-2.37561e-28
4.10472e-09
1.00926e-44
-2.52264e-41
-2.13032e-24
-1.43275e-50
4.18028e-52
4.45632e-43
-3.86732e-43
-8.71609e-42
-5.45762e-42
7.74342e-45
3.20444e-45
-1.07555e-48
-4.64281e-43
-2.53099e-42
-1.60564e-41
-4.03515e-42
-9.06458e-43
-5.66879e-43
-4.26277e-09
-1.06577e-08
1.99143e-43
1.12803e-42
-1.35811e-37
2.35418e-42
-3.66683e-42
1.4221e-48
6.35989e-37
3.4171e-36
2.70678e-06
1.95356e-06
1.05015e-11
-6.4659e-42
1.41208e-40
0.0169305
0.0122815
-0.00750823
-1.94986e-18
1.72927e-19
1.93208e-25
8.37669e-26
3.18177e-06
-4.93012e-31