/*--------------------------------*- C++ -*----------------------------------*\
  =========                 |
  \\      /  F ield         | OpenFOAM: The Open Source CFD Toolbox
   \\    /   O peration     | Website:  https://openfoam.org
    \\  /    A nd           | Version:  6
     \\/     M anipulation  |
\*---------------------------------------------------------------------------*/
FoamFile
{
    version     2.0;
    format      ascii;
    class       volScalarField;
    location    "8640000";
    object      Cw;
}
// * * * * * * * * * * * * * * * * * * * * * * * * * * * * * * * * * * * * * //

dimensions      [1 -3 0 0 0 0 0];

internalField   nonuniform List<scalar> 
11830
(
0
4.31475e-62
3.29589e-123
4.58444e-09
7.3915e-107
1.24581e-105
0
0
0
2.61741e-100
3.81607e-97
5.1901e-96
0
0
1.70236e-91
6.04347e-91
9.67347e-91
0
5.0989e-88
0
1.01844e-84
0
0
3.50083e-80
1.22249e-79
4.00918e-83
0
1.13619e-78
4.20087e-77
5.69293e-77
0
0
2.70804e-75
1.14743e-73
9.67804e-73
1.14869e-72
2.36619e-72
1.82329e-71
2.82802e-74
1.12618e-71
0
0
0
0
3.5679e-64
1.5826e-63
7.16369e-64
0
0
0
2.09488e-61
2.30702e-61
7.96599e-62
0
0
4.82726e-61
3.10043e-60
3.20493e-60
7.1865e-61
0
0
0
9.02509e-60
3.0731e-59
3.67218e-59
2.43325e-59
1.03187e-59
2.42355e-60
3.46479e-62
0
0
2.32532e-59
1.34423e-58
1.31353e-58
1.07032e-58
4.11659e-59
9.46523e-60
2.28666e-59
1.8058e-58
0
0
0
0
7.46168e-54
2.90553e-53
3.4793e-53
3.19005e-53
1.84136e-53
1.18415e-53
4.7806e-54
2.57663e-54
8.79532e-55
2.89632e-55
9.05835e-56
2.64877e-56
1.05309e-56
2.13654e-57
7.28622e-58
1.27843e-58
3.27288e-59
6.54204e-60
1.2485e-60
2.94863e-61
1.67477e-61
3.52433e-61
1.24114e-60
3.56642e-60
1.00577e-59
2.68691e-59
6.86356e-59
1.66938e-58
3.83011e-58
8.35522e-58
1.70634e-57
3.28682e-57
5.98887e-57
1.00867e-56
1.54039e-56
2.10459e-56
2.56311e-56
2.63806e-56
2.11342e-56
1.05497e-56
3.26446e-58
0
0
0
0
7.23062e-65
0
7.21575e-67
5.07163e-66
1.52346e-65
2.12536e-65
1.86366e-65
8.75187e-66
0
0
0
0
0
0
1.07575e-76
6.72645e-75
2.38964e-74
3.36255e-74
2.74879e-74
9.22131e-75
0
1.18948e-78
0
3.99969e-82
6.18503e-79
2.25152e-78
3.05984e-78
1.51198e-78
0
0
0
0
0
4.41447e-87
1.09715e-85
3.014e-85
2.25452e-85
2.41731e-86
0
0
0
0
7.80648e-92
4.6485e-91
8.08889e-91
1.7547e-91
0
0
0
0
0
9.01809e-100
2.14889e-99
1.88317e-99
3.59455e-100
0
0
0
0
0
0
1.60742e-109
2.65521e-109
1.08893e-109
6.75877e-111
0
0
0
0
0
5.84342e-121
6.29819e-120
2.79678e-120
2.90045e-121
5.21175e-122
1.60699e-121
4.70389e-121
0
8.76376e-117
0
0
0
1.03212e-110
6.00058e-109
6.67429e-108
1.62916e-107
3.26519e-105
2.88733e-102
3.84757e-100
0
0
0
0
2.84468e-90
3.03794e-89
2.03897e-88
9.06458e-88
0
0
6.26026e-83
8.04827e-84
0
0
5.67988e-77
4.07717e-76
8.09972e-76
0
8.7119e-75
8.42615e-72
3.77992e-69
0
2.01367e-65
0
0
2.3815e-60
7.1142e-59
4.3168e-58
2.63418e-57
7.96501e-58
4.571e-58
0
1.59283e-53
0
5.28963e-50
7.61293e-48
2.29738e-47
7.95399e-47
1.31679e-46
0
0
0
3.94593e-43
1.28993e-41
0
0
0
1.73967e-34
4.89204e-34
9.21989e-33
1.37178e-32
9.15917e-33
1.54961e-31
2.3291e-28
3.8756e-27
0
0
0
3.02439e-21
2.7784e-20
2.85842e-20
2.18679e-19
8.73071e-20
2.9758e-19
0
2.78879e-16
0
0
1.95819e-10
4.95876e-10
2.24895e-09
8.77945e-09
2.49509e-08
4.56337e-08
5.5511e-08
7.71458e-08
9.36455e-08
9.41955e-08
9.15921e-08
8.08649e-08
5.55257e-08
3.11676e-08
1.80561e-08
5.38422e-09
6.75418e-09
2.85745e-08
1.52925e-08
4.89338e-08
2.77794e-08
4.84743e-08
2.13747e-08
1.25665e-08
5.84131e-09
2.09983e-09
3.79479e-10
0
0
0
3.53916e-16
0
9.88408e-20
2.84413e-20
7.17923e-22
5.32835e-24
2.09891e-24
3.60145e-24
3.59301e-24
1.64184e-24
4.98552e-25
8.46187e-29
0
0
2.27085e-27
9.14125e-28
6.84365e-29
0
0
9.10554e-32
1.52326e-31
6.23862e-32
1.31777e-32
3.12361e-35
0
0
1.16764e-37
4.90794e-37
1.68945e-37
2.72266e-38
0
0
0
5.60702e-44
5.26657e-43
1.44336e-43
4.82314e-45
0
0
4.31469e-49
1.0844e-50
0
2.00011e-53
5.10553e-56
7.17353e-57
3.43846e-58
9.34495e-60
1.19039e-60
2.78834e-61
8.80472e-62
1.43247e-62
3.56259e-65
0
4.66294e-68
2.91802e-68
3.22955e-71
5.49328e-73
1.15703e-73
1.15959e-75
4.77513e-75
1.19627e-75
2.70032e-77
0
0
0
0
4.86102e-85
2.67449e-86
5.12442e-87
1.78003e-87
0
0
0
8.77813e-93
7.58233e-95
0
3.2763e-100
6.30156e-100
6.14719e-103
2.35558e-104
3.70644e-106
1.20062e-106
6.86645e-107
3.01736e-107
2.59303e-108
1.36871e-42
0
1.2337e-77
3.97457e-47
2.24397e-62
1.34156e-73
0
3.59949e-58
6.68266e-58
0
6.77057e-86
0
2.41541e-64
0
5.52536e-70
0
0
0
1.37043e-57
0
0
0
7.78126e-26
0
5.07583e-58
0
4.57058e-77
3.76627e-20
1.82526e-88
2.37311e-55
0
1.81441e-78
9.09704e-82
0
4.59737e-52
5.22068e-99
2.9646e-55
0
1.44413e-16
4.04861e-86
8.57988e-09
0
2.02309e-87
1.201e-52
6.05028e-107
5.96852e-09
1.88711e-56
4.2779e-92
0
1.67772e-59
0
2.64019e-78
0
9.20124e-40
0
2.10924e-54
0
5.41024e-08
5.36108e-109
1.93663e-32
7.35784e-85
5.67774e-59
0
1.33175e-31
1.7068e-73
0
0
0
0
1.37597e-56
4.49899e-08
0
0
5.21237e-58
2.60243e-08
1.25303e-96
5.97647e-76
9.99585e-65
0
0
8.09222e-27
1.3232e-72
0
2.04645e-90
7.45019e-99
9.70965e-58
0
3.95067e-20
0
0
3.84146e-24
2.67795e-78
0
1.25276e-08
1.4251e-58
0
0
2.31003e-59
1.04056e-08
4.38626e-104
6.95362e-56
0
0
5.98811e-59
0
5.22646e-52
0
0
2.23331e-60
2.77045e-43
5.07464e-77
7.82861e-47
0
0
0
9.14215e-109
0
0
0
0
0
4.33398e-64
5.93718e-08
3.5299e-08
0
1.67785e-08
1.32252e-95
2.06702e-55
1.08224e-110
0
3.57663e-57
1.60501e-53
0
7.25525e-87
1.71092e-61
4.39e-58
3.9654e-59
4.52603e-52
0
8.52167e-32
0
4.06978e-84
9.32253e-68
2.69449e-57
4.08238e-21
0
0
0
8.51857e-37
0
8.35055e-58
1.15409e-31
0
5.94435e-90
0
5.4219e-73
1.11957e-71
2.16428e-27
0
4.87473e-55
0
0
0
0
2.84902e-120
2.5621e-09
5.32981e-60
5.32749e-106
2.39142e-43
7.29152e-42
1.63966e-42
2.49376e-42
0
0
0
3.92887e-39
9.49539e-36
4.21171e-35
9.67063e-35
2.40393e-34
6.27695e-35
1.99661e-35
5.13691e-34
0
0
0
2.41797e-30
3.07699e-29
2.86273e-28
6.87829e-28
1.16285e-27
1.85647e-27
4.47931e-28
0
0
0
2.13711e-24
1.15378e-23
0
3.63279e-23
4.75951e-25
8.21022e-23
6.79519e-24
1.49119e-22
2.37621e-23
2.33804e-22
5.35284e-23
3.1926e-22
9.68763e-23
4.00333e-22
1.53463e-22
4.81533e-22
2.27138e-22
5.59413e-22
3.20372e-22
6.19033e-22
4.11298e-22
6.3295e-22
3.89432e-22
2.24143e-22
5.82326e-22
0
4.54815e-22
0
0
0
0
0
1.18084e-18
2.02775e-18
0
2.83245e-18
1.90013e-17
1.90394e-17
5.57453e-17
4.58188e-17
1.77282e-17
3.46437e-17
1.54421e-17
2.46824e-17
2.95139e-17
1.58774e-17
1.62269e-17
8.77335e-18
0
3.52112e-20
3.54106e-18
0
2.32436e-16
0
2.43281e-18
0
0
0
0
0
0
0
1.66814e-08
2.88096e-08
0
3.17934e-08
8.36796e-10
2.67054e-08
2.09607e-07
1.25299e-07
1.88499e-08
6.90677e-08
3.19078e-07
1.52885e-07
3.54157e-08
6.9198e-08
2.4138e-07
9.9411e-08
2.92643e-07
2.96774e-08
3.9054e-08
1.20947e-08
1.46688e-08
4.69553e-09
5.27806e-09
1.74087e-09
1.82504e-09
6.17887e-10
6.08895e-10
2.10361e-10
2.60452e-22
1.95862e-10
6.8927e-11
6.06394e-11
1.51201e-10
2.18143e-11
2.21734e-11
7.16625e-12
6.43226e-12
2.14434e-12
4.37545e-11
9.51519e-11
1.66561e-12
2.58515e-11
4.89411e-11
5.76999e-13
3.80292e-13
1.25222e-11
2.04964e-11
1.38167e-13
7.51802e-14
4.94491e-12
6.88809e-12
2.90279e-14
1.56464e-12
1.79732e-12
1.24787e-14
5.23163e-15
3.82701e-13
3.47672e-13
1.63905e-15
7.77158e-16
6.86619e-14
4.3755e-14
1.48182e-16
7.72889e-15
2.31914e-15
8.76537e-17
4.91991e-18
3.1175e-16
0
5.95836e-18
0
0
0
6.57884e-20
0
0
0
0
0
0
0
0
0
0
0
8.86888e-29
2.3318e-28
2.94996e-28
9.94839e-28
5.3173e-28
1.96411e-27
5.70089e-28
2.38189e-27
3.75014e-28
1.77565e-27
1.09074e-28
6.55678e-28
0
3.40359e-33
0
0
0
0
1.7779e-19
3.02293e-29
0
0
0
1.68229e-19
0
0
2.76282e-40
3.22582e-21
1.0332e-19
5.33432e-21
5.18685e-20
7.2983e-40
0
4.1444e-21
2.2743e-20
5.92249e-44
4.80839e-44
2.30728e-21
8.99652e-21
1.07422e-21
3.27483e-21
2.02061e-44
5.38982e-42
1.39166e-22
4.4134e-22
1.11135e-21
1.64694e-22
3.5485e-22
1.6601e-42
3.28521e-42
1.2037e-41
3.64294e-42
1.56788e-41
2.18553e-42
5.6826e-23
1.07327e-22
7.95321e-43
1.10455e-41
1.83453e-23
3.09114e-23
4.50655e-43
5.58808e-24
8.51295e-24
3.31933e-42
1.61614e-24
2.24968e-24
0
8.9417e-25
4.45979e-25
5.72072e-25
0
0
1.17884e-25
1.40402e-25
6.08973e-25
1.41063e-25
5.58894e-25
1.22457e-25
4.37333e-25
9.06652e-26
2.93763e-25
5.79503e-26
1.71072e-25
1.82778e-26
3.22425e-26
8.68626e-26
0
0
0
0
0
2.1844e-28
1.41244e-27
4.0514e-28
1.01564e-27
1.39769e-28
2.84244e-28
2.80806e-29
7.59789e-29
9.12916e-30
2.44156e-29
2.76504e-30
7.85376e-30
2.8305e-31
9.66534e-32
0
2.86734e-31
1.60717e-31
1.71545e-31
6.83847e-31
1.04496e-31
1.83467e-31
6.30575e-33
0
1.5686e-26
3.85504e-26
0
0
0
0
1.19833e-34
6.886e-34
0
6.68389e-27
1.49523e-26
3.97798e-28
0
0
1.90836e-34
5.07554e-34
0
0
2.49262e-27
5.05461e-27
5.41658e-35
5.9307e-35
0
9.32895e-23
4.53776e-51
1.84234e-51
0
0
8.10883e-28
1.48064e-27
4.06684e-28
4.38168e-51
1.13944e-51
0
0
0
9.70478e-40
7.02263e-39
3.2721e-39
2.88482e-38
1.14963e-51
2.2853e-52
6.42354e-39
1.16755e-38
7.82851e-38
1.53653e-38
3.29185e-40
0
1.25282e-38
0
0
0
0
1.61059e-41
7.8141e-42
3.07488e-41
1.19762e-40
7.40974e-41
4.37223e-42
1.27397e-28
6.49703e-29
4.79857e-40
2.18782e-42
7.36349e-53
9.42222e-54
0
1.961e-29
1.01677e-29
0
0
4.81082e-52
0
0
0
0
2.95858e-30
1.55943e-30
0
0
0
0
0
0
0
0
1.0696e-33
4.3767e-31
2.34489e-31
0
0
0
3.73e-27
0
2.39516e-26
0
1.30117e-25
8.63749e-27
6.24237e-25
1.20171e-25
2.64253e-24
7.75689e-25
1.00397e-23
3.93684e-24
3.45075e-23
1.69398e-23
1.07558e-22
6.30274e-23
3.043e-22
2.07452e-22
7.75401e-22
6.12328e-22
1.7931e-21
1.63564e-21
3.84579e-21
3.94849e-21
7.64421e-21
8.52526e-21
1.38967e-20
1.66977e-20
2.24161e-20
6.75918e-21
3.03894e-20
3.20294e-20
5.15817e-20
4.16208e-20
8.05979e-20
4.52344e-20
1.12976e-19
3.5107e-20
1.39245e-19
4.2576e-22
1.48075e-19
0
0
0
2.0438e-16
0
0
0
0
0
1.51208e-13
0
0
0
1.32609e-09
0
1.52057e-19
0
0
0.000452034
0.00718832
0
0.0235706
0.107642
0.201543
0.491937
0.750918
0.336781
1.05847
1.8262
2.30067
1.38524
2.72005
1.69119
3.02927
1.93582
3.19753
3.2803
2.09102
3.2404
2.15222
3.14062
4.09677
3.71162
2.87024
3.22308
3.76704
2.49518
2.6778
1.00374e-20
2.07206
2.12574
5.36156e-50
0
4.35295e-52
0
1.65067
0
0
6.35074e-32
1.06403e-31
3.45823e-32
0
1.61024
1.2632
2.34846e-53
1.53708e-52
3.6117e-17
8.82154e-34
1.19444
1.48913e-32
2.20832e-32
0
0
9.39134e-27
2.45418e-27
2.24748e-52
2.11128e-53
1.16343
0.925803
0.893626
0
6.46417e-21
2.97619e-33
3.81862e-33
0
0
0.655704
1.58543e-26
3.6474e-27
6.77372e-22
0.649657
0
0
0.463862
0.581158
4.93899e-34
5.26452e-34
0
0
0
2.40382e-26
4.77218e-27
2.99472e-26
1.25875
1.0681e-47
1.47823e-23
5.65051e-22
1.96899e-23
0.435503
0.315043
0
0
0
2.03388e-59
3.21785e-26
5.33509e-27
0
6.4856e-35
5.316e-35
6.26926e-35
2.07953e-69
8.82985e-69
6.92883e-28
3.43912e-13
6.30519e-59
9.4703e-60
0.279924
0.205507
0
3.6996e-26
4.85946e-27
6.13391e-36
3.12663e-36
2.73775e-69
2.77755e-69
5.11867e-61
0
3.49633e-26
3.26271e-27
0.172596
0.128429
0.134877
0.0852121
6.2117e-70
1.35162e-70
3.18171e-37
2.22499e-38
2.49231e-26
1.21299e-27
2.45443e-25
2.7405e-14
1.73813e-24
1.60378e-43
0.102284
0.119004
0
0
0.0815214
1.31896e-71
0
1.17854e-70
0
0
1.06222e-26
0
8.16331e-12
7.46096e-29
4.77381e-14
0.0514884
0
0
0
0
0
0
6.12854e-59
4.90739e-60
2.77694e-58
4.55411e-59
4.23839e-58
8.46203e-59
2.79955e-58
6.52629e-59
7.96085e-59
2.5311e-59
0
0
0
0
0
0
0
0
7.587e-54
0
1.19808e-52
1.421e-53
2.4427e-52
3.47584e-53
2.56649e-52
4.01601e-53
4.71831e-54
6.01858e-54
0
1.42159e-59
6.11147e-55
8.68135e-55
1.38097e-52
7.54379e-56
1.20846e-55
1.55566e-51
8.85247e-57
1.62282e-56
1.07352e-55
1.60203e-56
4.74213e-56
7.79081e-57
4.74889e-57
1.36244e-57
4.2091e-26
1.15638e-31
1.73244e-32
5.28054e-32
8.03436e-33
2.2432e-32
3.46602e-33
8.89699e-33
1.39619e-33
3.30406e-33
5.26734e-34
1.15149e-33
1.86555e-34
3.77254e-34
6.2144e-35
1.1634e-34
1.94976e-35
3.38e-35
5.76755e-36
1.00236e-35
9.25504e-36
1.6095e-36
2.38825e-36
4.23792e-37
5.80379e-37
3.11823e-36
1.0525e-37
7.34317e-38
6.94452e-37
3.53724e-36
1.86164e-38
1.24346e-38
7.24704e-37
3.5142e-36
6.58181e-37
2.99701e-36
3.21484e-39
2.05929e-39
5.42492e-40
3.33759e-40
5.02662e-37
2.11567e-36
8.95236e-41
5.29718e-41
3.08665e-37
1.16922e-36
0.0666031
0.065647
5.54353e-64
2.65999e-63
4.43401e-65
9.67524e-66
1.45026e-66
1.40401e-37
4.52524e-37
0.0456357
2.40951e-66
7.72487e-38
1.44575e-41
8.23753e-42
2.81538e-41
4.22529e-42
1.34832e-41
1.25578e-42
3.85339e-28
0
0
1.71153e-73
0
0
0
1.22594e-57
2.97074e-58
1.9564e-42
5.83003e-42
1.977e-71
2.27491e-41
0.0289767
3.88987e-38
8.97895e-38
6.20133e-71
4.76761e-64
7.52429e-63
0
0
0
0
0.0350428
0.0316837
0.0234164
1.84421e-67
2.54047e-39
0
0
2.96501e-72
0
0
0
0
0
0
0
9.88209e-51
7.10596e-50
8.15037e-50
5.53551e-59
8.19049e-43
2.27813e-42
0
0
0
0
8.85092e-25
0
4.67978e-65
0.0160509
0.0126511
0
0
0
0
0
2.78606e-44
0
4.64155e-45
2.03572e-42
0
0
3.25455e-46
0
9.53122e-45
8.27523e-44
4.98405e-44
6.8099e-45
2.52591e-44
0
1.73764e-43
8.42121e-44
9.52538e-43
2.5532e-42
4.09077e-42
2.02574e-41
1.19284e-41
1.03026e-42
1.32533e-42
2.53763e-41
6.75753e-43
0
0
0
1.29886e-44
9.52417e-44
7.36008e-43
1.27479e-43
4.00747e-43
0
2.90445e-44
2.48108e-44
0
0
0
1.61591e-44
6.6272e-45
2.95925e-44
0
9.87462e-45
3.50864e-45
4.97198e-45
8.01161e-46
0.015027
0
9.58482e-47
0
0
0
0
0
0.011014
0
0
3.64124e-73
3.10246e-43
8.04479e-43
3.46807e-69
0
7.00511e-47
0
7.72627e-46
3.08374e-45
3.62224e-45
3.62876e-46
5.28837e-46
2.50619e-44
0
0
0
1.67853e-73
4.32973e-73
0
0
9.39928e-60
0
9.99716e-48
0
0
0
0
1.31646e-35
0.00604142
0.00392122
0.00783335
0
0
0
5.08339e-40
0
0
0
8.43493e-76
0
0.00716405
0
0
0
0
0
0
0
0
0
0
0
1.39619e-80
7.89391e-82
7.05104e-80
1.12004e-79
6.19906e-80
1.35697e-79
2.36046e-80
2.31282e-80
7.43569e-80
2.35725e-79
1.78996e-79
3.37077e-79
1.02947e-81
3.60788e-79
3.29038e-79
6.52982e-79
1.80076e-79
1.22562e-78
0
0.00926277
1.49519e-60
4.08042e-62
1.06301e-43
2.5647e-43
4.15388e-44
0
2.86764e-74
2.24123e-33
0.00474544
0.00683903
1.17921e-43
0
0
0
0
0
7.04044e-50
1.46812e-49
1.77614e-47
2.50765e-47
3.57568e-47
9.03645e-47
3.78155e-47
1.0879e-46
2.05487e-46
1.71672e-47
2.80385e-46
3.72795e-46
6.36479e-46
4.14609e-46
1.24607e-45
2.03912e-46
2.0023e-45
0
2.24766e-45
0
1.37282e-45
5.06076e-47
0
0
0
0
0
0
0
0
0
0
0
0
7.20407e-45
0
0
1.82294e-35
0
3.62425e-34
0
1.66139e-33
0
5.06344e-33
5.30099e-49
0
8.38142e-34
3.4894e-34
1.24391e-32
2.89075e-32
4.76884e-32
0.00446519
0.0054913
4.83324e-79
2.5289e-32
6.93274e-32
6.51199e-32
7.1405e-32
4.51306e-50
3.80455e-49
9.833e-49
1.73364e-48
7.86687e-48
5.04132e-48
4.34231e-49
3.64997e-49
0
0
0
0
0
3.5279e-53
0
2.56456e-52
4.49832e-53
9.26712e-53
8.29971e-52
1.24472e-52
1.27808e-54
0
5.00438e-53
0
2.5366e-78
0
8.6553e-32
6.46552e-32
2.955e-35
2.52466e-34
0
2.15985e-30
5.86595e-34
1.37691e-29
0
1.72996e-26
0
0
0
0
0
0
0
0
5.08444e-19
1.47905e-18
9.84938e-20
3.44793e-18
9.21931e-18
1.47861e-17
2.13262e-17
2.68346e-17
2.06883e-17
2.99977e-17
2.59784e-17
3.03332e-17
4.31707e-78
0
0
5.25156e-34
0
4.97049e-39
3.35514e-40
0.00173869
0.000843778
0.0020139
0.000273045
0.000730593
1.61252e-05
9.78077e-05
0
0
0
0
6.48357e-11
0
0
0
0
0
0
0
0
0
2.60073e-19
0
0
0
0
0
0
2.64989e-18
0
0
0
0
0
0
0
0
0
1.33941e-12
1.28045e-14
0
0
1.63966e-13
0
6.74932e-11
0
3.91457e-10
7.03994e-14
5.2776e-10
4.12958e-13
3.8834e-10
1.04444e-09
6.28193e-12
0
0
0
4.38365e-76
0
0
0
0
0
0
0
0
0.000487765
0.0013637
0
0.00240134
0.0205493
0.0233032
0.00341711
0.0244623
0.093317
0.085417
0.0239655
0.0735562
0.195353
0.152928
0.0596241
0.113084
0.2352
0.160609
0.0790063
0.103866
0.177973
0.107714
0.0636419
0.0621889
0.0928513
0.0503896
0.0342333
0.0258962
0.0322006
0.0152975
0.0126015
0.00686486
0.0058056
0.00291275
0
4.19074e-78
1.51767e-78
0.00263087
0.00348935
8.20974e-77
0
1.68926e-59
0.00267282
0.00313831
3.29052e-44
7.36569e-44
5.81637e-43
1.5438e-43
1.23534e-42
3.01527e-43
2.44593e-42
5.45483e-43
2.25876e-61
5.4348e-61
2.09326e-62
0
0
0
2.93085e-17
2.66813e-17
0.0159721
0
3.21963e-12
1.60024e-58
2.36095e-17
1.55071e-37
6.74076e-37
4.48837e-42
9.06734e-43
0.00253304
0.00117216
3.75842e-07
0
1.67752e-76
1.63718e-59
8.0388e-59
3.91717e-48
4.6645e-51
0
0
0
0
0
0
0
0
0
0
0
9.05585e-61
2.75207e-61
1.95152e-60
4.38143e-79
0
1.75659e-67
0
0
0
2.24615e-61
0
7.51876e-60
3.51953e-60
4.31539e-59
3.51791e-59
7.01966e-59
7.7066e-59
0
6.54501e-60
0
0
0
0
1.56041e-54
0
0
0
0
1.26643e-49
0
0
0
0
0
0
2.13095e-41
3.70516e-41
2.41467e-42
2.98219e-40
1.81334e-40
3.33371e-40
0
0
0
0
0
0
2.99498e-34
5.85215e-34
3.61374e-33
3.3151e-33
5.67288e-33
3.01638e-33
0
0
1.99455e-33
1.25171e-33
0
0
0
0
0
0
2.1234e-29
1.71476e-29
0
1.90495e-29
2.99554e-28
3.71113e-28
3.29648e-29
4.50129e-28
1.18589e-27
1.09209e-27
4.75765e-28
8.54112e-28
7.12522e-28
0
5.12419e-28
0
0
0
2.25158e-25
3.29194e-25
2.41176e-28
3.29436e-24
2.55061e-24
0
3.06288e-17
1.9952e-17
0
0
8.06505e-18
7.04066e-78
0.00116458
1.88023e-78
2.95888e-60
0.00154016
0.00173351
0
0
0
1.5689e-57
4.11348e-12
2.12917e-17
4.43392e-19
1.44443e-08
3.74684e-27
0
1.79874e-18
1.87446e-18
1.19899e-50
1.32778e-09
3.44088e-24
0.0011327
0.000417133
0.000446972
0.000145102
1.51122e-28
3.35118e-25
3.59844e-25
1.61844e-24
4.05379e-24
1.75232e-24
1.44963e-24
0
8.67679e-25
9.60946e-29
3.66258e-11
7.05716e-58
9.28994e-59
1.10056e-61
0
1.29785e-28
2.21634e-26
5.868e-27
2.00904e-23
0.000103675
3.19589e-05
4.77094e-05
9.23931e-06
1.48441e-05
2.49862e-06
4.37267e-06
6.30861e-07
1.21906e-06
1.48162e-07
3.21625e-07
3.21e-08
7.08945e-37
3.53276e-36
1.15827e-17
0
0
0
6.52573e-44
9.18025e-45
0
0
3.29466e-62
5.41629e-63
0
0
0.000855544
0.00092832
1.79578e-60
2.8085e-77
1.91337e-17
7.57517e-42
1.36989e-42
8.02601e-08
0
1.12473e-58
9.76546e-61
7.57221e-67
2.60197e-60
0.00419785
0
0
0
0
0
1.55119e-36
8.19602e-36
2.83512e-37
6.30362e-09
3.75819e-27
1.04636e-27
4.14245e-28
3.6933e-23
1.45367e-23
1.96242e-22
2.62807e-22
8.43313e-24
2.14114e-22
0
0
8.81344e-19
5.41496e-19
0
0
1.34197e-54
1.13192e-76
0
5.26843e-83
0
0.00069981
0.000458919
0.000482369
1.53911e-22
2.81032e-52
9.82745e-58
1.38544e-59
0
0
0
0
0
0
2.78016e-70
1.87882e-66
3.86981e-67
1.0749e-66
6.4519e-66
1.41397e-66
0
1.55077e-25
9.96606e-66
7.67559e-67
1.45227e-17
3.44096e-60
3.40548e-60
4.63829e-63
1.03913e-63
1.90825e-67
1.16372e-41
1.85182e-42
2.10405e-43
2.4252e-43
2.64509e-44
2.45098e-44
1.48265e-05
2.87831e-08
7.19004e-65
4.06674e-66
2.07535e-36
1.20727e-35
1.44385e-21
5.9003e-22
1.08861e-22
2.10023e-22
1.53049e-21
1.01078e-21
1.82293e-05
0.000908825
0.000453371
0.000774462
0.000370549
0.000568838
0.00021887
1.41421e-62
1.25931e-76
6.31996e-66
4.45434e-68
1.02058e-66
0
0
0
0
0
0
4.21367e-20
1.89097e-08
5.64762e-28
1.67543e-28
0
1.20459e-22
7.12033e-23
3.16806e-50
4.20619e-51
0
0
2.04157e-19
4.33505e-20
0.000261233
0.000354089
0
0
7.62174e-61
5.65065e-60
1.54753e-60
3.47469e-77
1.12558e-09
0
2.27925e-61
7.29323e-61
8.94086e-40
4.50166e-34
1.35883e-65
2.67661e-67
0
1.77372e-36
1.12501e-35
4.69217e-23
4.58524e-21
1.72195e-21
2.77876e-28
4.69856e-29
7.06844e-29
1.63397e-19
0
6.90882e-27
1.59302e-76
1.64602e-84
0
2.53653e-45
1.64891e-45
0
0
6.35244e-64
1.70121e-64
1.13378e-63
8.63736e-60
0
3.5594e-67
4.45551e-64
5.55543e-32
0
0
8.08497e-37
5.92204e-36
2.81502e-18
3.49728e-23
1.69253e-44
5.43886e-46
6.22801e-41
9.72737e-41
7.30683e-29
1.71765e-35
6.8559e-35
4.10058e-35
8.48906e-37
9.18357e-36
0
0
0
0
0
0
0
1.25345e-29
1.9315e-22
0
0
0
0
0
1.24156e-21
0
0
4.19972e-09
9.33409e-22
6.7522e-22
0
0
0
1.64414e-41
0
0
0
0
0
3.12902e-59
0
6.77403e-12
2.0756e-28
1.73294e-50
1.78773e-51
3.51147e-51
7.19797e-52
4.31845e-52
0
8.64073e-70
0
0
1.72826e-29
4.42633e-19
1.74762
8.7531e-21
8.10198e-21
6.89534e-20
1.04027e-37
0.00015566
0.000179798
0
0
1.39287e-52
0
3.86107e-70
1.32341e-77
1.12653e-59
0
6.49681e-45
0
0
0
0
0
2.69827e-34
0.000371449
0
0
0
6.12066e-51
7.44581e-52
2.82223e-21
1.36241e-64
1.18244e-64
1.52773e-84
0
0
1.50962e-77
5.03759e-77
5.6882e-77
9.02666e-77
6.86126e-60
0
0
0
4.45467e-39
2.98756e-53
4.37852e-71
1.45466e-70
0
0
5.03805e-40
7.99915e-40
0
1.45034e-22
3.71016e-23
1.84805e-29
3.63201e-29
0
0
4.70319e-07
0
0
1.47718e-22
1.27233e-22
3.19651e-30
2.00877e-30
8.50353e-22
2.05302e-20
0
0
6.92755e-28
1.75181e-72
0.00136029
0.000351159
0.000341081
7.11559e-05
8.10691e-05
9.74541e-06
2.73554e-06
1.47131e-05
0
0
0.00432721
2.19086e-67
6.51169e-52
7.22656e-53
5.71799e-51
8.85424e-53
7.81124e-54
1.02876e-53
8.22033e-55
1.16747e-54
2.52189e-55
2.09237e-56
0
0
0
0
0
4.07317e-30
2.78128e-73
7.47371e-05
7.21135e-05
6.63889e-05
0
0
3.41938e-83
0
0
5.73681e-18
7.13665e-53
2.7665e-53
0
2.2303e-72
0
1.31716e-15
1.95103e-20
6.35106e-18
1.74967e-59
2.82138e-54
0
6.64056e-72
0
0
0
0
1.28368e-65
4.20281e-66
1.03815e-77
1.26681e-77
0
0
5.65563e-72
0
0
6.39746e-85
1.2531e-84
0
0
0
0
0
0
0
1.04363e-22
1.66681e-23
0.000175597
6.36292e-05
0
0.00120025
5.80602e-56
0
0
0
0
5.49759e-51
1.24414e-65
0
0
5.39205e-31
2.85737e-31
8.27254e-77
0
0
0
1.10105e-18
5.40656e-18
0
2.08889e-12
2.47572e-05
1.85004e-05
4.90151e-05
1.12418e-05
0
0
4.00899e-39
2.26986e-39
6.47003e-39
8.01636e-31
0
0
0
0
0
0
7.39831e-39
0
0
1.84561e-10
4.58262e-12
9.82406e-57
0.0602109
2.28221e-53
0
0
3.34409e-16
0
5.14418e-41
1.98857e-45
1.22607e-43
0
3.31864e-43
0
0
6.67593e-42
0
3.61754e-40
1.38039e-41
0
1.12467e-40
3.55384e-40
5.07992e-40
2.56324e-39
0
1.5704e-39
0
3.05342e-29
0
7.64081e-76
1.31087e-23
5.27905e-21
0
5.08687e-83
0
0
0
4.68399e-78
0
0
0
2.38718e-72
0
0
0
0
0
0
1.11349e-38
3.43465e-39
1.61518e-40
2.52229e-41
0
0
3.12144e-05
4.99855e-06
6.65653e-23
5.21783e-24
0
7.31018e-44
9.51508e-83
7.20466e-83
0
1.69401e-05
4.65816e-73
1.26175e-72
8.18363e-32
0
0
0
0
1.81484e-09
1.91856e-18
3.94612e-18
0.00163645
0
0
0
0
0
0
8.60736e-59
3.04313e-85
1.98529e-85
3.69228e-67
0
0
0
1.35711e-66
0
0
1.80217e-78
5.97144e-79
4.22734e-58
2.65313e-57
0
0
0
0
0
1.50431e-05
9.464e-07
7.71002e-35
1.96418e-29
4.34769e-30
1.91352e-29
0.00282849
1.14396e-39
2.26853e-82
4.71354e-83
2.02107e-82
5.6752e-84
1.84531e-85
0
0
0
0
0
0
0
0
0
0
1.71444e-93
2.65045e-93
2.27033e-93
6.11157e-93
1.26626e-93
4.62035e-93
1.32937e-94
1.17337e-93
0
0
0
0
0
0
0
0
0
0
0
8.36964e-94
5.44076e-95
0
2.49217e-94
0
6.0255e-93
0
1.46301e-92
0
0
2.32659e-92
1.30981e-92
0
3.29679e-40
3.5225e-39
7.28757e-40
3.44434e-39
0
0
7.29542e-39
4.59808e-38
8.17285e-38
8.92376e-37
2.68998e-37
1.01689e-36
1.49329e-38
0
2.60526e-37
1.19742e-35
8.19095e-36
7.96879e-35
3.63355e-35
6.71512e-37
0
2.74539e-34
6.81993e-35
6.97342e-34
1.24481e-35
1.07442e-35
1.14597e-35
1.09134e-37
7.1243e-37
8.55965e-62
3.50914e-23
6.84832e-25
1.19764e-22
0
0
0
0
0
2.6655e-30
0
1.39355e-73
0
0
1.36521e-53
0
0
8.09509e-47
5.97602e-46
0
1.54063e-45
6.1227e-45
7.7656e-45
2.72432e-45
8.42688e-45
0
0
0
0
9.42306e-39
1.44482e-39
9.62883e-36
2.41332e-35
1.74968e-38
9.00315e-39
0.000318872
4.11421e-06
0
0
0
0
0
0
0
3.50129e-32
4.53785e-44
2.14623e-43
0
1.62315e-29
5.72254e-29
3.84223e-38
0
0
4.37827e-76
2.46318e-76
3.79343e-76
2.41684e-69
4.02777e-30
9.36405e-31
1.61384e-29
0
1.23009e-74
0
0
0
0
0
3.29864e-20
2.97973e-73
0
1.90666e-18
2.57317e-18
1.51024e-07
6.72599e-06
0
8.07011e-24
0
0
0
0
0
0
7.84104e-75
0
0
0
0
9.64155e-92
1.49262e-91
0
0
0
0
0
3.49367e-38
1.094e-32
0
0
0.00596078
2.83631e-45
2.57508e-46
2.99017e-46
2.56356e-47
3.09921e-47
2.50299e-48
3.15936e-48
7.33272e-74
9.75521e-55
2.61194e-34
3.12091e-52
3.07201e-51
1.57239e-14
0
0
2.21423e-32
0
0
2.23247e-12
0.0689537
0
0
0
0
1.56161e-18
3.30195e-18
5.77242e-18
1.01966e-75
4.00326e-58
7.04503e-58
0
3.62412e-45
7.90905e-45
3.143e-86
2.19782e-88
0
0
1.32978e-59
5.72267e-59
4.47406e-58
1.26921e-58
1.49027e-62
3.01539e-68
1.39737e-67
1.03432e-73
2.37779e-72
1.38578e-71
6.58002e-72
4.54319e-71
8.34852e-72
0
3.05054e-93
0
1.68131e-53
3.20177e-52
8.79226e-53
5.9054e-52
6.15421e-53
0
0
0
0
5.11918e-51
4.90125e-51
8.06662e-53
2.18259e-51
2.02652e-50
3.9398e-51
8.17441e-51
6.08169e-52
1.1719e-50
1.74351e-50
7.28817e-52
8.1952e-51
5.36397e-52
2.38965e-51
9.83438e-50
2.1788e-52
4.91292e-52
6.02222e-53
7.23574e-53
2.77425e-52
0
0
0
0
0
2.07714e-50
1.64867e-50
4.96915e-52
7.15772e-51
7.78465e-50
2.23191e-50
2.45159e-51
5.50565e-51
7.20147e-52
1.16956e-51
5.40012e-51
1.19924e-51
2.48249e-52
7.58169e-53
4.73226e-53
0
4.5744e-52
4.81104e-54
2.20067e-52
2.77141e-51
0
0
0
2.27813e-51
0
0
0
8.6908e-45
1.27319e-44
0
7.16879e-45
1.11033e-43
3.57176e-44
3.51321e-43
9.21183e-44
1.03404e-44
2.272e-44
2.75948e-45
5.31687e-45
7.21739e-43
6.89051e-46
1.1882e-45
7.96282e-45
1.64097e-45
2.54844e-46
3.27111e-46
1.90545e-45
3.58065e-46
1.9211e-45
3.44489e-46
6.55957e-47
6.02093e-47
2.91905e-46
4.86003e-47
2.18597e-46
3.48736e-47
1.46298e-46
2.24474e-47
5.44655e-48
3.37615e-48
1.3038e-47
1.89301e-48
6.86128e-48
9.63563e-49
3.28105e-48
4.46389e-49
1.42855e-48
1.32933e-49
5.97006e-50
1.80222e-50
7.85121e-51
2.40178e-51
8.33299e-49
1.01555e-51
3.12607e-51
3.14727e-52
7.01345e-52
9.31207e-53
1.17323e-47
2.36997e-47
4.05611e-53
1.21554e-53
1.95623e-52
2.91553e-46
2.95715e-42
5.09823e-42
1.02352e-52
5.28026e-77
1.84679e-79
1.21586e-38
7.63131e-38
1.5605e-39
6.72512e-38
3.16846e-38
0
0
8.30537e-05
6.22046e-43
6.84921e-43
7.61934e-44
8.29613e-44
1.41896e-42
2.96303e-44
0
0
0
0
4.72328e-33
2.97023e-32
0
2.82673e-18
1.59718e-18
1.57945e-18
8.46505e-19
4.78094e-19
2.02297e-19
1.39496e-44
0
1.19244e-48
4.12919e-47
8.74723e-48
2.31571e-46
3.64701e-47
8.87878e-47
3.32822e-48
4.83143e-49
0
0
0
0
0
1.50228e-53
0
8.02072e-57
5.7592e-58
0
0
0
0
0
7.08039e-64
0
0
0
0
1.48509e-66
3.67705e-64
3.15561e-54
6.74826e-54
7.83739e-05
1.72e-05
8.69039e-75
0
1.06956e-75
0
2.47623e-68
1.56002e-67
0
0
3.21194e-30
1.17256e-29
0
0
0
4.61336e-73
1.3498e-73
6.68186e-71
4.50601e-72
2.43623e-74
0
1.53347e-53
3.95097e-52
2.91315e-50
5.75822e-51
2.67145e-49
6.96355e-50
2.37481e-48
7.61181e-49
2.04937e-47
7.77771e-48
1.7176e-46
2.05996e-46
1.55385e-45
1.1411e-45
7.81996e-45
1.13859e-44
3.17609e-45
5.14759e-44
8.09092e-44
3.214e-43
5.55888e-43
8.43457e-44
6.26244e-43
5.27705e-44
4.30511e-43
4.49523e-42
3.37921e-42
1.27071e-43
1.21152e-42
2.55124e-41
1.08022e-41
0
0
0
5.576e-19
1.61711e-19
0
9.341e-46
4.30037e-19
7.99526e-20
1.18701e-20
9.87091e-22
2.87677e-20
0
0
0
0
0
0
0
0
0
0
0
0
0
0
0
0
0
0
0
0
0
0
0
0
0
2.17536e-37
2.09682e-37
0
5.63639e-35
5.6016e-36
0
4.22566e-36
8.36824e-39
9.95404e-34
2.04726e-36
1.35202e-37
4.18441e-36
2.30082e-37
0
0
0
0.0132533
0.0101458
0.0154279
0
0
1.26572e-74
1.19859e-72
4.75083e-73
2.41518e-72
1.3255e-72
6.00518e-74
3.18233e-73
0
1.2349e-72
1.67934e-70
1.40231e-70
1.33081e-67
5.0115e-68
0
9.2854e-67
0
0
0
0
1.62134e-60
4.63844e-61
8.25513e-60
4.37334e-60
9.6873e-60
8.81293e-60
0
2.92079e-60
0
0
0
0
0
0
0
0
0
7.10573e-53
0
0
3.74845e-47
0
0
0
0
0
1.36317e-40
2.7998e-42
1.78578e-39
3.80212e-39
6.44423e-39
7.17077e-39
3.07137e-40
0
0
0
3.24168e-34
2.43533e-33
4.34491e-39
1.64824e-32
2.9648e-32
4.6259e-32
4.49522e-32
3.38455e-32
0
0
4.08355e-32
3.32705e-39
0
0
4.51785e-28
1.53878e-27
5.3599e-29
7.82001e-30
3.34339e-27
2.14657e-28
5.62903e-27
0
7.54518e-28
7.57627e-27
0
7.68895e-27
1.57783e-26
1.44731e-26
8.36621e-27
1.08036e-26
2.01139e-27
0
6.39864e-27
0
3.56473e-27
0
0
7.51974e-26
0
3.18344e-25
1.243e-23
1.32933e-23
5.35095e-25
1.42618e-23
6.60042e-23
6.288e-23
1.10224e-22
9.37806e-23
1.57391e-23
2.40769e-49
1.12946e-49
3.18602e-49
3.13271e-48
3.24622e-49
2.62225e-48
2.78011e-49
1.92668e-48
2.0755e-49
1.27152e-48
1.39188e-49
7.65566e-49
8.50012e-50
4.24918e-49
4.7783e-50
2.19136e-49
2.49699e-50
1.0559e-49
1.21777e-50
9.0313e-49
4.77862e-50
5.57746e-51
5.85676e-80
2.41167e-79
0
5.14735e-54
1.56091e-54
2.25005e-55
0
0
0
4.33148e-65
9.28819e-65
4.00123e-45
5.6362e-45
2.47083e-45
4.83568e-49
0
1.08577e-57
1.72646e-58
0
0
0
0
0
1.60774e-32
1.46228e-33
0
5.13148e-12
0
2.67053e-12
0
0
3.3095e-15
0
2.51897e-17
0
6.43355e-18
0
0
0
0
2.72993e-22
3.4389e-22
0
0
0
9.26281e-75
0
0
2.77607e-21
7.64003e-21
0
0
1.34915e-38
1.36288e-39
2.29324e-37
4.93734e-37
9.94431e-38
1.6215e-53
1.7338e-37
0
3.49572e-33
0.000238352
0
3.49445e-76
0
4.82941e-47
6.59458e-65
8.49815e-54
0
5.59689e-80
5.66288e-38
0
1.6365e-61
0
0
0
0
0
4.81438e-84
1.57931e-84
3.53746e-84
2.5726e-85
2.84681e-86
2.39674e-85
0
0
0
4.40562e-91
0
1.14401e-92
0
8.5533e-60
2.73866e-29
1.50534e-29
4.12879e-29
2.23834e-30
0
0
1.03783e-23
8.46041e-50
5.13005e-30
0
3.55106e-41
1.29316e-45
3.00677e-05
2.74811e-05
1.17075e-05
1.10392e-05
2.10837e-05
8.58645e-06
1.42662e-05
5.87164e-06
8.71398e-06
3.60711e-06
4.87648e-06
1.9997e-06
2.55547e-06
5.7848e-06
1.00545e-06
2.82214e-06
6.16227e-06
2.75816e-06
5.87714e-06
0
0
2.39486
7.80621e-40
6.68937e-55
2.04549e-33
2.78748e-43
0
7.805e-77
2.54621e-33
0
3.15901e-33
4.29779
0
5.32411e-35
2.16865e-41
1.21796e-39
0
0
0
0
6.6065e-39
4.29994e-36
0
3.91679e-38
0
1.27624e-37
1.4994e-37
2.10086e-37
5.76998e-36
6.99416e-35
3.83244e-35
1.17999e-34
3.30492e-35
3.16212e-34
5.85522e-37
1.35217e-37
3.05443e-39
0
0
3.70237e-43
3.78846e-44
4.66192e-44
5.23723e-45
4.27662e-37
0
0
1.11201e-44
2.58251e-46
0
0
0
0
0
4.30898e-31
4.87532e-31
4.54405e-30
2.43883e-30
7.39949e-30
1.85593e-30
3.88061e-31
0
0
2.22312e-46
0
0
5.37815e-31
1.36151e-27
1.32665e-27
1.12067e-26
5.03779e-27
8.63468e-28
1.60521e-27
3.01713e-27
0
1.87725e-36
0
4.10301e-28
0
0
0
0
0
0.0358792
0
0
0
0
0
0
0
4.11294e-23
8.16208e-22
6.09793e-21
1.27698e-20
8.21934e-20
1.04355e-19
6.19968e-19
5.97043e-19
3.33857e-18
2.61094e-18
1.38589e-17
9.20732e-18
1.77457e-18
5.43209e-18
1.06929e-18
4.64975e-17
2.88071e-18
5.78701e-19
1.3848e-18
6.57102e-18
2.83844e-19
0
2.04994e-19
2.821e-18
1.27317e-17
4.33465e-20
7.15933e-17
2.28393e-16
4.89037e-18
2.09189e-17
1.92208e-21
7.17685e-18
1.7205e-18
2.89539e-17
8.66359e-17
3.59698e-16
1.09037e-15
1.12787e-16
3.46984e-16
4.23933e-16
1.3424e-15
8.82644e-18
1.7564e-15
5.0555e-15
4.96546e-16
1.21731e-58
1.56539e-57
0
0
5.15341e-20
2.78947e-41
0
1.00065e-39
3.17601e-26
0.531374
0
1.04573e-44
0
5.12862e-41
6.78215e-17
3.56121e-18
3.21488e-08
0
2.03136e-29
0
1.74206e-48
0
1.56573e-50
0
1.71717e-46
0
4.51714e-45
2.0569e-41
9.03934e-44
3.17485e-28
1.75563e-35
7.78139e-34
7.54938e-54
0
7.56525e-29
4.35207e-31
0
2.72164e-44
2.10483e-34
2.61153e-33
9.38208e-34
0
0
6.99547e-17
9.634e-17
7.02825e-17
1.07272e-16
1.87771e-17
6.48677e-17
0
0
9.34778e-17
0
1.47974e-16
0
0
0
0
0
2.04314e-16
0
0
1.10526e-16
2.29513e-16
0
0
0
0
6.4983e-05
7.61401e-05
2.40316e-06
7.76287e-05
0.000513654
0.0003898
0
0
6.84101e-05
0.00027439
2.18235e-16
2.16587e-16
2.48349e-16