/*--------------------------------*- C++ -*----------------------------------*\
  =========                 |
  \\      /  F ield         | OpenFOAM: The Open Source CFD Toolbox
   \\    /   O peration     | Website:  https://openfoam.org
    \\  /    A nd           | Version:  6
     \\/     M anipulation  |
\*---------------------------------------------------------------------------*/
FoamFile
{
    version     2.0;
    format      ascii;
    class       surfaceScalarField;
    location    "86400";
    object      phiw;
}
// * * * * * * * * * * * * * * * * * * * * * * * * * * * * * * * * * * * * * //

dimensions      [0 3 -1 0 0 0 0];

internalField   nonuniform List<scalar> 
99
(
2.31481e-05
2.31481e-05
2.31481e-05
2.31481e-05
2.31481e-05
2.31481e-05
2.31481e-05
2.31481e-05
2.31481e-05
2.31481e-05
2.31481e-05
2.31481e-05
2.31481e-05
2.31481e-05
2.31481e-05
2.31481e-05
2.31481e-05
2.31481e-05
2.31481e-05
2.31481e-05
2.31481e-05
2.31481e-05
2.31481e-05
2.31481e-05
2.31481e-05
2.31481e-05
2.31481e-05
2.31481e-05
2.31481e-05
2.31481e-05
2.31481e-05
2.31481e-05
2.31481e-05
2.31481e-05
2.31481e-05
2.31481e-05
2.31481e-05
2.31481e-05
2.31481e-05
2.31481e-05
2.31481e-05
2.31481e-05
2.31481e-05
2.31481e-05
2.31481e-05
2.31481e-05
2.31481e-05
2.31481e-05
2.31481e-05
2.31481e-05
2.31481e-05
2.31481e-05
2.31481e-05
2.31481e-05
2.31481e-05
2.31481e-05
2.31481e-05
2.31481e-05
2.31481e-05
2.31481e-05
2.31481e-05
2.31481e-05
2.31481e-05
2.31481e-05
2.31481e-05
2.31481e-05
2.31481e-05
2.31481e-05
2.31481e-05
2.31481e-05
2.31481e-05
2.31481e-05
2.31481e-05
2.31481e-05
2.31481e-05
2.31481e-05
2.31481e-05
2.31481e-05
2.31481e-05
2.31481e-05
2.31481e-05
2.31481e-05
2.31481e-05
2.31481e-05
2.31481e-05
2.31481e-05
2.31481e-05
2.31481e-05
2.31481e-05
2.31481e-05
2.31481e-05
2.31481e-05
2.31481e-05
2.31481e-05
2.31481e-05
2.31481e-05
2.31481e-05
2.31481e-05
0
)
;

boundaryField
{
    bc0
    {
        type            calculated;
        value           uniform 0;
    }
    bc1
    {
        type            calculated;
        value           uniform 0;
    }
    bc2
    {
        type            calculated;
        value           uniform 0;
    }
    bc3
    {
        type            calculated;
        value           uniform 0;
    }
    top
    {
        type            calculated;
        value           uniform 0;
    }
    bottom
    {
        type            calculated;
        value           uniform 0;
    }
}


// ************************************************************************* //
