/*--------------------------------*- C++ -*----------------------------------*\
  =========                 |
  \\      /  F ield         | OpenFOAM: The Open Source CFD Toolbox
   \\    /   O peration     | Website:  https://openfoam.org
    \\  /    A nd           | Version:  6
     \\/     M anipulation  |
\*---------------------------------------------------------------------------*/
FoamFile
{
    version     2.0;
    format      ascii;
    class       volScalarField;
    location    "17280000";
    object      Cw;
}
// * * * * * * * * * * * * * * * * * * * * * * * * * * * * * * * * * * * * * //

dimensions      [1 -3 0 0 0 0 0];

internalField   nonuniform List<scalar> 
11830
(
0
2.32345e-25
0
1.10125e-11
8.80307e-82
1.34352e-80
1.6543e-79
1.49269e-78
7.18086e-78
4.02768e-77
1.6409e-76
2.8868e-74
2.34456e-73
6.04393e-71
1.26897e-69
4.81141e-69
9.62443e-69
1.85085e-68
4.58092e-70
0
0
0
5.58915e-61
1.83977e-58
2.70179e-57
2.64925e-56
2.02401e-55
6.25736e-55
1.52207e-54
3.10562e-54
0
0
0
0
1.60026e-48
3.23309e-46
3.02516e-45
1.53733e-44
5.49795e-44
5.00996e-44
7.29177e-45
0
4.36229e-43
6.58568e-41
8.10517e-40
3.97867e-39
4.1603e-39
4.76605e-39
6.03964e-40
0
0
8.60043e-37
3.34118e-35
1.2549e-34
2.28093e-34
1.89318e-34
7.66529e-35
0
9.33689e-35
1.01342e-32
4.19781e-32
6.94264e-32
4.57421e-32
1.72848e-32
2.3735e-33
0
3.70749e-32
1.53074e-31
2.81924e-31
3.08912e-31
1.88183e-31
8.95859e-32
2.25754e-32
1.01885e-33
0
1.4115e-30
6.83744e-30
5.77964e-30
6.87119e-30
7.75984e-30
1.00007e-29
5.42278e-30
2.13226e-30
2.09232e-31
0
0
0
1.12595e-27
0
1.24922e-23
5.22555e-23
9.60359e-23
1.06129e-22
9.07652e-23
7.05522e-23
7.51975e-23
3.79574e-23
3.11361e-23
1.2655e-23
7.02412e-24
3.02577e-24
1.30296e-24
7.84246e-25
7.54041e-25
9.77663e-25
2.59594e-24
4.84076e-24
8.82669e-24
1.4806e-23
2.29975e-23
3.27622e-23
4.23205e-23
4.96025e-23
5.17168e-23
4.7346e-23
3.62082e-23
2.02816e-23
5.96248e-24
1.98447e-26
2.11228e-27
0
0
0
0
7.42211e-39
6.90233e-37
5.03567e-36
3.29287e-35
1.04133e-34
1.30007e-34
1.66385e-34
1.48713e-34
9.41117e-35
3.60968e-35
3.6874e-36
0
6.92036e-41
0
0
0
0
3.44681e-46
8.49686e-46
1.66842e-45
2.85448e-45
3.31306e-45
2.19051e-45
8.40412e-46
8.34822e-47
3.75135e-52
0
0
0
7.09695e-55
1.26051e-53
3.34369e-53
5.09875e-53
5.09496e-53
2.4942e-53
5.98131e-54
1.02617e-55
0
0
0
0
0
0
5.22737e-67
1.9619e-65
3.59563e-65
3.80912e-65
3.14402e-65
1.12384e-65
1.61532e-66
9.08847e-69
0
0
0
0
0
0
1.73384e-78
5.39025e-78
8.75513e-78
9.17951e-78
4.70467e-78
7.66277e-79
2.02127e-81
0
0
0
9.91802e-90
0
0
0
1.79391e-93
1.4859e-93
1.93252e-93
1.99827e-93
2.58766e-94
0
5.07606e-100
3.76465e-100
0
3.39451e-94
5.76026e-93
7.21976e-93
3.51137e-92
2.04606e-91
0
4.62465e-90
0
0
0
0
0
4.38694e-79
5.86794e-78
2.51174e-77
3.49107e-76
1.8761e-75
3.34997e-74
1.25884e-73
6.03204e-72
5.83599e-70
9.72792e-70
4.7473e-68
3.99511e-67
7.06845e-67
9.15368e-67
0
4.5363e-63
5.56771e-61
4.64772e-60
1.81586e-59
6.19185e-59
1.41379e-56
3.75135e-55
1.05622e-52
0
6.66017e-50
1.88388e-49
6.01873e-49
2.6062e-49
6.60554e-47
0
0
0
1.86258e-41
2.35298e-40
7.87604e-40
1.76427e-39
4.95868e-39
2.79466e-38
0
0
0
7.47529e-32
1.28198e-31
2.0518e-29
3.7316e-29
1.05812e-28
2.18013e-28
3.88517e-28
0
0
2.54402e-25
1.57292e-24
8.01857e-24
3.44685e-23
7.72822e-23
3.36589e-22
4.22324e-22
7.06436e-22
5.43971e-22
1.43151e-19
1.37646e-17
0
1.35713e-14
2.59399e-14
5.11822e-13
5.24012e-13
6.02078e-13
7.30543e-12
2.82862e-12
3.85739e-11
2.42519e-11
4.29389e-11
5.10159e-11
9.4154e-11
1.01443e-10
1.01793e-10
9.98698e-11
9.60287e-11
8.9187e-11
7.92195e-11
6.80857e-11
5.03816e-11
3.23977e-11
2.31831e-11
6.35071e-12
8.56452e-12
4.09283e-11
1.05899e-11
3.51624e-11
2.23424e-11
5.14503e-11
3.35445e-11
3.12953e-11
2.53996e-11
1.82526e-11
1.10946e-11
5.17524e-12
2.16203e-12
8.65204e-13
3.08584e-13
8.24255e-14
6.09468e-15
0
0
1.31309e-19
0
4.09643e-23
0
4.5124e-25
4.67246e-27
2.57022e-27
1.14823e-27
1.71361e-27
1.64645e-27
1.22718e-27
6.28323e-28
2.58774e-28
8.22425e-29
1.05357e-29
0
0
4.94835e-31
4.40911e-31
3.0693e-31
1.46318e-31
5.57996e-32
1.481e-32
5.72458e-34
0
0
7.32943e-38
8.11221e-37
5.17402e-37
2.36314e-37
8.86107e-38
2.15115e-38
3.01996e-40
0
0
7.12832e-44
7.54442e-43
4.52138e-43
1.89569e-43
6.20793e-44
8.56015e-45
0
0
0
1.94826e-50
3.01774e-49
1.44775e-49
5.03751e-50
1.02748e-50
4.17761e-54
0
0
1.46764e-56
0
0
0
0
0
0
1.78856e-68
1.23327e-69
1.08575e-69
2.10946e-70
1.26104e-70
4.96867e-71
5.82552e-72
1.47899e-74
0
2.58063e-75
3.95586e-75
2.96996e-78
0
0
0
3.2069e-83
1.66644e-82
7.41311e-82
6.28297e-82
3.45525e-82
8.65817e-83
2.44286e-37
7.7253e-34
0
7.93259e-39
8.3508e-39
9.23604e-45
1.34597e-31
5.39731e-49
1.47308e-31
2.44889e-43
0
1.53919e-28
0
0
2.29407e-44
2.70776e-28
1.05346e-64
1.00813e-22
8.92616e-31
1.62934e-49
0
4.23655e-34
2.04583e-26
0
4.15667e-29
0
8.89143e-60
0
0
0
0
5.12023e-57
3.21561e-69
1.5423e-12
0
1.86462e-77
3.64988e-23
1.35472e-77
6.08536e-13
0
2.28237e-11
2.32516e-80
6.3755e-71
1.32717e-22
0
9.16897e-12
4.14089e-22
1.06404e-69
0
0
0
2.13427e-52
0
0
5.33618e-74
8.90081e-22
0
3.83702e-11
0
0
0
1.26943e-30
0
0
3.785e-45
0
0
1.77469e-50
0
2.14778e-22
2.66473e-11
0
2.49761e-89
1.06691e-22
1.31569e-11
0
4.04361e-62
8.2292e-34
5.0851e-36
9.5725e-68
5.11333e-28
0
4.20899e-29
7.06077e-66
0
1.16035e-29
0
3.22143e-13
6.15663e-22
0
0
3.74819e-55
9.37139e-93
1.0215e-11
2.82488e-23
1.59553e-81
1.00265e-92
1.76205e-23
6.50907e-12
9.67747e-79
3.70758e-22
0
1.11107e-38
2.78961e-34
2.56954e-31
4.38632e-43
2.22314e-39
0
1.51864e-34
3.85133e-37
7.13122e-53
2.36263e-35
1.63001e-29
1.07614e-52
3.02591e-77
0
8.93179e-12
0
4.45811e-12
7.86485e-69
1.0918e-59
2.24358e-34
3.46546e-11
3.70307e-11
0
1.25909e-11
0
5.76658e-22
0
0
2.57161e-22
6.98585e-22
0
8.11285e-71
1.48443e-49
0
0
0
1.87875e-28
1.82742e-23
2.34115e-30
0
2.07044e-51
0
0
0
7.19569e-40
9.16924e-39
9.90203e-33
6.70814e-44
0
0
1.82418e-31
7.6588e-65
1.31164e-22
1.46317e-44
4.94406e-46
7.45192e-28
8.81895e-76
0
1.29055e-41
0
1.06914e-48
2.44903e-45
0
2.41087e-12
5.07014e-24
3.86706e-81
1.13943e-37
9.49585e-37
1.01024e-36
2.22587e-36
7.46536e-37
4.6708e-37
0
0
0
0
1.27086e-30
5.12137e-30
1.76975e-29
4.49832e-29
1.62459e-29
1.07711e-28
1.68645e-28
3.53451e-28
3.91017e-28
7.27269e-28
3.33702e-28
4.98766e-28
0
0
0
0
1.9979e-24
7.57828e-24
4.14583e-23
1.03279e-22
2.51261e-23
2.48369e-22
7.42644e-23
5.75245e-22
2.01478e-22
1.27781e-21
5.16756e-22
2.6727e-21
1.24888e-21
5.156e-21
2.77306e-21
9.07318e-21
5.47922e-21
1.55319e-20
9.78055e-21
2.95326e-20
1.78049e-20
5.92074e-20
3.4364e-20
1.07005e-19
1.61662e-19
2.27498e-19
1.77493e-19
2.98628e-19
2.66042e-19
3.79131e-19
2.21125e-19
2.41992e-19
4.52853e-19
1.57869e-19
0
0
0
0
0
0
0
0
0
0
0
0
0
0
0
0
0
0
0
0
8.66266e-05
0.000328459
0
0.000815974
0.00554255
0.00881149
0.0297017
0.0421313
0.0133921
0.0577525
0.136922
0.175485
0.0765795
0.218347
0.0983025
0.263805
0.494911
0.569066
0.309526
0.636069
1.02642
1.09773
0.690893
1.14067
1.62028
1.61832
2.0838
1.15176
1.58017
1.13793
1.50034
1.0938
1.38441
1.0218
1.24109
0.927347
1.08143
0.817683
1.02595e-21
0.916057
0.70048
0.754264
0.906945
0.583014
0.491215
0.414034
0.31404
0.26845
0.724824
0.813799
0.181855
0.62697
0.649935
0.157952
0.094562
0.481562
0.466727
0.0836789
0.0435964
0.329578
0.287129
0.0394718
0.1921
0.147899
0.0174764
0.0163002
0.0927964
0.061436
0.00589656
0.00573493
0.0355301
0.0191394
0.00158105
0.00983833
0.00375956
0.00163559
0.000296379
0.00154913
0.000242759
0.000343934
2.07955e-05
0
2.50534e-05
4.08676e-05
0
0
0
0
0
0
0
0
0
5.40888e-17
0
0
0
0
0
4.04048e-20
0
1.1185e-19
9.59588e-20
2.41625e-19
2.87062e-19
3.12853e-19
4.14122e-19
3.30835e-19
4.59158e-19
2.88439e-19
0
4.41352e-19
0
5.54702e-05
0
1.77022e-19
1.07853e-19
1.93826e-06
6.68777e-05
0
5.51246e-20
2.01054e-20
4.91884e-06
7.4233e-05
8.04452e-06
7.67455e-05
7.48938e-21
4.9598e-22
1.0619e-05
7.5126e-05
0
0
1.22733e-05
6.92825e-05
1.28954e-05
6.06956e-05
0
0
8.47501e-07
1.27288e-05
5.07747e-05
1.16744e-05
4.06636e-05
6.82944e-29
0
0
0
0
0
1.00883e-05
3.12522e-05
0
0
8.27961e-06
2.30961e-05
0
6.47881e-06
1.64393e-05
6.86298e-35
4.85009e-06
1.1285e-05
5.33265e-34
1.45716e-06
3.48297e-06
7.47954e-06
0
2.40132e-34
2.4045e-06
4.79125e-06
1.26897e-05
7.6511e-06
1.77494e-05
1.01571e-05
2.1006e-05
1.148e-05
2.15113e-05
1.13384e-05
1.96723e-05
6.10522e-06
9.98483e-06
1.56615e-05
0
0
0
0
1.21674e-13
5.89108e-15
0
0
8.32164e-18
2.14938e-17
2.66848e-17
3.09648e-17
3.21354e-17
2.52527e-17
2.40074e-17
1.23479e-17
1.03806e-17
3.32742e-18
2.38904e-18
3.52425e-19
1.702e-19
4.36246e-18
0
0
0
0
2.99092e-22
2.69195e-22
7.59649e-06
1.06852e-05
1.03299e-33
3.4478e-22
2.20027e-22
4.86603e-22
1.63212e-22
9.21916e-23
7.99955e-34
4.94081e-06
6.18406e-06
6.09259e-19
1.1802e-33
1.08378e-33
3.88244e-23
1.84057e-23
8.04713e-34
6.03793e-34
2.71735e-06
2.99354e-06
2.17769e-24
7.28099e-25
1.17982e-33
8.54609e-21
2.81487e-34
1.60211e-34
0
0
1.24732e-06
1.21793e-06
1.15931e-06
3.60313e-35
1.08346e-35
2.16116e-26
3.98356e-26
9.46287e-28
2.66869e-26
1.39362e-26
3.63668e-26
3.98091e-27
0
0
4.4037e-28
0
0
0
7.01477e-30
1.11266e-29
2.97427e-30
1.25355e-29
1.1731e-29
9.34505e-30
1.13841e-29
6.86346e-30
3.19941e-30
1.89599e-30
4.70029e-30
1.04868e-30
1.43253e-31
5.04016e-07
4.8054e-07
3.0109e-30
4.01855e-32
0
0
0
1.97954e-07
1.93078e-07
0
0
0
0
0
0
0
7.55265e-08
7.52373e-08
4.51071e-48
1.304e-49
0
9.69206e-48
0
2.22662e-47
0
9.25563e-37
1.32016e-22
2.79149e-08
2.84974e-08
1.91743e-47
0
6.2756e-19
7.67038e-19
8.37408e-19
8.97577e-19
1.06052e-18
9.56337e-19
1.26456e-18
8.89067e-19
1.39015e-18
5.76044e-19
1.48371e-18
5.4972e-19
1.4594e-18
2.12976e-19
1.23074e-18
0
8.2949e-19
0
3.38546e-19
8.69874e-19
0
0
0
0
0
0
0
0
0
0
3.85335e-20
0
0
0
0
0
0
0
0
0
0
0
0
0
2.08126e-07
9.40999e-05
0.000178746
1.93698e-05
0.000273497
0.0010541
0.00124167
0.000364286
0.00137398
0.00374533
0.00377937
0.0014427
0.00362324
0
0.00145598
0.00331283
0.00730022
0.00625977
0.00291081
0.00519787
0.0102813
0.00815695
0.0149861
0.0114325
0.00629805
0.00850506
0.0144526
0.0103992
0.00617517
0.00731494
0.00437874
0.0050328
0.00303436
0.00338861
0.0166105
0.00205678
0.00223616
0.00136454
0.00144805
0.00227449
0.00144099
0.000921764
0.000893481
0.00131174
0.000575549
0.000542915
0
0.000352443
0.000323273
9.3183e-37
1.57469e-36
2.01754e-36
1.26026e-36
0.00021133
2.44481e-47
7.27701e-48
9.99428e-09
8.2563e-09
1.04868e-08
1.79844e-36
0.000188738
0.000124255
8.32547e-37
3.57575e-37
0.000549479
4.53369e-29
0.00118756
2.74675e-09
1.781e-09
2.73388e-47
1.74813e-47
2.99293e-06
1.04997e-06
1.8734e-37
2.39597e-38
0.000108078
7.16378e-05
7.75539e-05
1.60737e-18
0.000175388
5.32772e-10
2.24166e-10
2.69098e-47
2.20598e-47
4.5015e-05
2.6698e-06
7.79165e-07
0
4.0518e-05
5.3568e-39
0
2.56323e-05
4.60129e-05
5.43655e-11
5.10155e-12
2.40002e-47
1.73802e-47
2.27784e-47
2.07379e-06
4.7153e-07
1.59861e-06
0.000154248
0
0
1.27712e-20
1.72217e-18
2.24896e-05
1.43206e-05
0
0
0
8.45489e-45
1.34205e-06
2.09286e-07
0
0
0
1.18732e-11
1.22048e-47
5.08159e-48
2.97304e-17
0.124014
6.92398e-45
1.88085e-44
1.22546e-05
7.85302e-06
0
6.68052e-07
5.03474e-08
0
0
2.48687e-48
3.47786e-49
1.46484e-44
1.17466e-44
2.08103e-07
0
6.55768e-06
4.22843e-06
4.78171e-06
2.59118e-06
1.94382e-50
0
0
0
1.12855e-08
0
7.55963e-07
0.0181125
2.97414e-22
0
3.44728e-06
5.03803e-06
7.58437e-45
2.9675e-45
2.77168e-06
0
0
0
0
0
0
0
0.226873
0
0.0718319
1.51185e-06
5.49486e-48
1.25405e-47
0
0
0
0
0
0
0
0
0
0
0
0
5.19458e-38
0
1.57402e-36
4.24538e-37
5.41492e-36
2.05306e-36
1.04157e-35
4.72979e-36
1.37013e-35
7.15069e-36
1.28696e-35
7.31611e-36
8.88108e-36
5.75256e-36
3.07728e-36
2.76263e-36
0
2.20815e-37
1.98111e-36
4.76224e-37
1.96974e-36
0
1.27341e-36
5.00951e-37
0
7.50371e-37
3.78822e-37
0
4.07582e-37
2.47383e-37
6.69881e-38
7.70121e-38
0
1.8815e-41
0
2.93132e-38
1.60081e-23
2.61589e-08
9.87836e-09
2.14735e-08
8.29501e-09
1.59078e-08
6.27325e-09
1.07192e-08
4.30944e-09
6.60455e-09
2.70505e-09
3.73323e-09
1.55743e-09
1.94208e-09
8.24882e-10
9.32937e-10
4.02636e-10
4.20266e-10
1.83197e-10
3.41208e-10
1.76498e-10
7.82034e-11
6.84282e-11
3.09375e-11
2.43213e-11
5.09679e-11
1.12669e-11
1.36118e-11
1.59708e-11
3.1373e-11
5.07154e-12
5.83672e-12
8.41807e-12
1.52282e-11
3.3086e-12
5.31132e-12
2.22062e-12
2.43907e-12
9.46338e-13
9.95196e-13
8.15118e-13
1.04256e-12
3.93082e-13
3.97132e-13
6.1282e-14
2.95672e-14
2.58656e-06
3.54901e-06
1.42387e-45
4.51904e-45
9.99081e-47
4.34592e-46
0
0
0
1.53444e-06
0
7.43584e-14
1.5919e-13
1.55177e-13
3.58974e-13
1.3465e-13
2.83408e-13
5.93004e-14
0
0
0
0
0
0
0
4.54708e-39
1.49178e-41
1.01781e-13
1.9473e-13
0
1.44189e-13
8.41479e-07
0
0
0
5.83042e-46
2.42076e-45
2.05281e-14
6.19124e-17
5.24727e-36
0
1.77917e-06
2.27795e-06
8.19934e-07
0
7.41879e-21
4.51165e-22
0
0
0
5.04728e-28
5.31781e-29
6.73578e-28
3.53921e-29
4.57602e-27
7.7694e-27
1.16215e-26
2.36635e-26
1.92729e-26
0
6.7026e-14
1.16464e-13
0
0
0
0
3.76665e-05
1.95276e-46
1.19977e-45
1.11416e-06
1.31585e-06
1.75383e-23
1.94912e-21
1.2535e-20
3.60716e-24
0
1.06525e-22
1.7661e-23
3.29748e-22
1.55561e-22
9.92433e-22
5.43496e-22
9.87854e-22
2.25246e-21
1.60385e-21
3.72816e-21
2.66757e-21
1.07128e-21
1.76344e-21
5.03009e-21
2.51606e-21
9.1735e-21
2.95956e-21
1.26793e-20
3.39673e-21
1.69374e-20
3.49344e-21
2.23244e-22
8.94536e-23
3.26277e-21
0
0
0
0
0
6.51441e-24
1.3498e-23
1.25089e-23
2.03629e-23
0
1.00116e-23
1.36033e-23
3.58779e-24
4.03398e-24
1.78438e-23
4.33248e-24
3.55601e-25
2.1973e-25
2.23843e-23
3.65182e-22
0
0
3.08426e-24
4.50243e-07
0
0
8.27051e-29
0
0
1.72573e-19
7.463e-22
4.22471e-07
6.86797e-28
0
0
3.84536e-14
6.04699e-14
0
1.09353e-27
1.65989e-27
1.03436e-27
2.34957e-27
1.87301e-27
3.24954e-27
1.82796e-27
1.99932e-27
3.1279e-27
3.70935e-34
1.04472e-33
0
0
3.40365e-55
3.54423e-40
0
1.22491e-42
1.72558e-39
4.76812e-28
3.86894e-28
2.41728e-35
1.17785e-34
8.18713e-34
8.0102e-12
6.2654e-07
6.6803e-07
5.35749e-07
4.80054e-47
5.51193e-46
1.72193e-22
0
1.8756e-29
2.06977e-30
6.75082e-28
0
0
2.33151e-07
5.59236e-36
4.87287e-34
0
0
1.34451e-55
2.54249e-58
0
0
0
1.01153e-61
0
0
0
6.53314e-63
1.09262e-63
2.45169e-62
1.8478e-62
2.5174e-62
2.66552e-62
2.60887e-62
9.95663e-63
2.23199e-62
1.57043e-64
1.60716e-62
1.51395e-62
4.67732e-65
3.37585e-63
0
2.24013e-63
5.75711e-61
2.4361e-07
4.46471e-41
0
1.91513e-14
2.70543e-14
1.24036e-14
0
0
4.45115e-09
2.0908e-07
3.69636e-07
0
3.21639e-34
9.27216e-34
6.27625e-34
9.84021e-34
8.72566e-34
7.29606e-34
7.53561e-34
4.42083e-34
5.12811e-34
1.98814e-34
2.70576e-34
6.2245e-35
1.03931e-34
3.38522e-34
1.00697e-35
1.52562e-34
3.99008e-34
2.08461e-34
4.89695e-34
2.93424e-34
7.85981e-34
5.3735e-34
2.13754e-33
1.65076e-33
8.3661e-33
9.8358e-35
7.23658e-33
3.55358e-32
3.39028e-32
1.45003e-31
1.50666e-31
5.54525e-31
4.3095e-33
6.17783e-31
1.96751e-30
5.98985e-31
1.89496e-30
6.25963e-30
3.36811e-30
1.00464e-32
1.29717e-35
0
0
8.2525e-31
0
0
0
0
0
4.27618e-26
0
0
0
0
0
0
1.26585e-07
1.29929e-07
1.68594e-62
0
0
7.56129e-22
1.44906e-21
0
0
0
0
0
0
1.71168e-31
2.86127e-31
1.87223e-31
1.93925e-31
3.79737e-31
1.77083e-31
3.01767e-32
1.35275e-32
1.33627e-31
2.14663e-33
0
0
0
0
1.88414e-37
1.08547e-36
0
1.82147e-36
4.79485e-64
0
0
2.35884e-21
1.14961e-20
1.49178e-20
3.92815e-20
4.4658e-20
1.95344e-20
5.12405e-20
7.66393e-20
7.7022e-20
5.79571e-20
7.59085e-20
6.5126e-20
4.88606e-20
6.88027e-20
3.05078e-20
5.67499e-20
1.13536e-20
0
0
0
0
0
0
0
0
0
0
3.30525e-15
0
0
1.39994e-36
1.34718e-36
2.40786e-09
0
3.57151e-24
2.95938e-22
3.0749e-07
2.99733e-07
6.55544e-07
2.77558e-07
6.13413e-07
2.39123e-07
5.35788e-07
1.8774e-07
4.28264e-07
1.31089e-07
3.06289e-07
7.86484e-08
1.90009e-07
3.81613e-08
9.71652e-08
1.31696e-08
3.70338e-08
1.08221e-09
5.92541e-09
0
0
0
0
0
0
1.51683e-09
0
1.78986e-08
7.74457e-15
0
8.71485e-08
0
3.09457e-07
0
9.15978e-07
2.25582e-08
2.41068e-06
2.13956e-07
5.92986e-06
9.35801e-07
1.38644e-05
3.05122e-06
3.10595e-05
8.33333e-06
6.70688e-05
2.04112e-05
0.00013989
4.67999e-05
0.00028223
0.000101981
0.000551673
0.00015649
0.000212819
0.0010463
0.00205296
0.00366008
0
5.18675e-48
2.23145e-46
1.66226e-19
0
6.82701e-37
0.00192774
0.00636199
3.53387e-20
0.0101596
0.0168746
0.0107846
0.0273743
0.0377124
0.0588936
0.0433703
0.0898744
0.110184
0.162493
0.13401
0.234213
0.261138
0.364564
0.32986
0.497022
0.514531
0.681601
0.661867
0.882019
0.859633
1.07174
1.11396
1.30255
1.13681
1.33441
1.54274
1.53113
1.24999
1.39609
1.71982
1.51831
1.88638
1.60691
2.34216e-28
0
0
1.74173e-07
2.99822e-07
1.90215e-61
4.02982e-37
2.32537e-37
6.7735e-08
6.82688e-08
8.20796e-15
1.0274e-14
3.46365e-14
1.14427e-14
3.96129e-14
1.12269e-14
3.99163e-14
9.42636e-15
4.10973e-40
2.81513e-39
0
0
0
0
0
0
1.06061
0
1.36548e-06
7.55509e-37
0
7.81162e-22
5.96674e-21
3.49099e-14
6.40385e-15
2.01767
1.65053
1.04693e-07
6.8447e-11
0
9.53509e-39
0
1.75354e-36
0
0
0
0
0
0
0
1.29407e-45
1.61027e-48
0
2.16688e-48
2.12592e-46
2.49292e-48
1.43464e-47
9.18738e-49
2.65246e-62
1.16665e-26
0
7.32284e-47
8.05804e-46
3.82851e-46
1.38153e-45
7.95563e-46
1.48364e-45
9.62635e-46
5.47901e-46
3.07653e-46
0
0
0
0
0
0
4.83416e-40
1.02901e-40
2.67752e-39
1.06721e-39
5.73762e-39
2.74129e-39
7.49752e-39
1.31589e-38
5.97836e-39
4.7943e-39
0
0
0
0
6.60922e-37
1.11741e-34
0
3.40623e-33
8.38149e-33
2.41477e-32
4.78817e-32
7.30946e-32
1.26061e-31
1.25548e-31
1.78316e-31
7.99839e-32
4.60279e-32
1.21209e-32
0
0
0
0
1.26388e-26
3.10947e-26
3.99359e-27
1.3033e-27
6.68254e-26
2.14957e-25
3.61213e-25
2.14565e-31
1.3067e-25
5.73573e-25
9.37425e-25
1.26932e-24
8.65483e-25
1.64975e-24
1.62322e-24
1.73397e-24
2.09646e-24
1.66027e-24
1.7626e-25
0
1.54485e-24
0
0
0
0
0
1.08746e-20
2.38539e-20
1.83717e-19
2.75671e-19
0
9.76113e-19
1.40987e-18
0
0
0
7.32155e-09
1.42867e-08
1.04914e-09
3.67831e-62
1.34251e-07
0
0
3.58082e-08
3.53299e-08
0
0
1.63133e-39
0
3.16993e-08
5.84391e-15
0.000353438
1.7227
0
0
0
0
8.3051e-27
0.727411
6.67138e-19
1.20548
1.1915
1.64719
1.14946
1.27728e-27
4.99222e-19
3.95857e-19
2.0397e-18
5.22779e-18
7.99434e-18
1.42355e-17
2.17652e-17
3.01363e-18
2.23392e-28
1.69161e-05
1.05799e-37
0
0
0
1.08788e-19
6.59565e-07
4.61098e-07
1.83857e-06
0.758617
0.697665
1.07719
0.620326
0.978036
0.532192
0.858917
0.439705
0.728507
0.349135
0.595887
0.265773
2.31164e-22
0
0
8.45229e-08
2.62683e-17
3.6572e-17
2.47213e-15
2.97646e-15
0
0
4.03984e-40
0
3.0963e-44
5.12833e-45
1.87281e-08
1.80244e-08
1.37813e-48
2.92224e-63
0
2.51242e-14
3.11199e-15
0.469286
1.84719e-06
0
6.18301e-46
1.59474e-47
4.82141e-38
2.19836
1.78802e-18
0
1.14863e-44
2.46673e-44
0
5.58514e-22
7.99417e-22
4.15852e-22
0.193391
1.46934e-07
1.10663e-07
0
9.46612e-23
4.0085e-23
2.01675e-17
2.31818e-17
4.67982e-17
2.29668e-17
9.33787e-08
3.67253e-07
5.1397e-18
2.78137e-20
1.47385e-62
1.94869e-62
3.77721e-40
0
3.6465e-65
5.0636e-63
0
1.82941e-08
9.69623e-09
9.08084e-09
6.97404e-05
6.55543e-37
2.06319e-37
2.19796e-37
9.33251e-38
6.02235e-38
2.04421e-38
6.19093e-39
1.35934e-39
0
0
0
0
0
0
0
4.47598e-07
5.30587e-06
0
0
0
6.82084e-49
0
2.5965e-40
1.27008e-42
0
1.35172e-14
7.49103e-16
1.12145e-16
0
0
0
0.414885
0.182738
3.10662e-44
2.34093e-44
1.0532e-21
1.5803e-21
2.18384e-19
0
1.66553e-17
0
0
0
1.41727
1.61448e-08
7.93687e-09
1.34931e-08
6.49675e-09
1.05293e-08
3.86436e-09
0
5.3974e-65
1.53058e-49
1.7194e-49
9.74606e-50
5.98776e-49
6.6126e-49
9.32425e-49
5.56943e-49
5.13537e-49
1.41879e-48
1.78244e-10
0.35517
2.39196e-08
2.04918e-08
5.5372e-62
1.46018e-22
6.55797e-23
9.50914e-27
3.58926e-27
3.22982e-07
1.01986e-06
0
0
4.98324e-09
7.65507e-09
3.69494e-63
3.51224e-65
1.39522e-48
0
0
6.10285e-63
0.134021
0.0593017
6.81454e-49
1.84415e-48
5.69335e-33
0
2.0448e-44
6.96379e-45
0
1.25795e-21
2.05346e-21
1.72983e-17
1.08302e-13
1.86407e-12
7.9106e-08
1.62141e-08
5.39257e-08
4.70005e-21
0
0
1.50132e-63
1.21555e-63
0
0
0
2.39712e-49
1.12081e-49
1.4218e-40
1.35749e-41
3.07658e-40
0
0
9.96771e-45
1.85466e-49
2.595e-08
4.31458e-45
3.38599e-46
1.23433e-21
2.17142e-21
0
4.65236e-19
0
0
9.52018e-14
5.58777e-14
2.03964e-09
6.66273e-23
3.21135e-21
3.60034e-21
1.78938e-21
3.31642e-21
1.13775e-21
2.35286e-21
5.09331e-22
1.22522e-21
1.27928e-22
0
0
1.20252e-08
1.71713e-22
8.08855e-07
2.67163e-07
2.27976e-06
2.96476e-06
1.575e-40
7.8732e-11
0.0358319
0.0109128
0.257742
0
0
0
4.06373e-22
1.05455e-25
3.4448e-13
3.54442e-21
1.03224e-18
0
0
4.06718e-36
0
0
0.468891
1.30488e-09
0
0
4.53442e-32
2.65273e-32
4.18383e-32
0
0
1.59327e-44
4.64419e-47
3.51845e-08
4.83926e-07
0.000352813
1.03606e-10
0
1.39604e-21
6.59075e-22
3.57e-09
5.15743e-09
8.16177e-64
6.31771e-64
3.02882e-32
0
0
7.57617e-63
0
0
0
0
0
0
0
3.42964e-31
5.75843e-21
1.17789e-06
7.8251e-50
0
1.69236e-06
2.88095e-27
9.40414e-28
0
1.31051e-40
1.65094e-40
1.74454e-63
0
3.63325e-50
3.51934e-51
2.42593e-50
0
5.03309e-63
0
0
2.03985e-48
5.69285e-34
1.73426e-12
1.83229e-32
0
4.56785e-52
0
0.00486554
3.48972e-13
2.20763e-13
0
7.99495e-23
2.8621e-23
0
0
0.000341161
2.72545e-21
0.920688
1.11253e-21
0
1.46974e-22
2.6784e-22
8.42294e-09
2.02883e-09
0
0
0
6.96045e-31
1.57374e-07
0
2.24604e-07
9.53591e-08
5.76133e-08
3.87259e-08
2.36849e-08
1.5018e-08
2.37396e-08
9.31353e-09
8.63045e-09
1.31259e-08
5.06383e-07
0
4.65e-28
1.22038e-28
1.62839e-27
2.90296e-28
2.86555e-29
8.42701e-29
5.98069e-30
2.28986e-29
0
0
0
1.1339e-07
4.38362e-06
0
0
2.20347e-08
0
2.37135e-09
3.19119e-09
1.66625e-09
0
0
1.46491e-64
4.43085e-09
6.43342e-09
0
1.32099e-32
2.15204e-32
0
1.04015e-50
3.46621e-06
4.44299e-06
0
0
1.25499e-47
1.36329e-32
0
3.11679e-53
0
0
0
0
5.93309e-41
4.56938e-41
0
0
0
0
0
4.66251e-63
4.5889e-63
1.90536e-63
2.82666e-63
1.08269e-65
5.26941e-31
3.75437e-30
1.62982e-30
3.53205e-30
0
0.00176998
3.63185e-23
1.21378e-23
7.04576e-09
4.03515e-09
5.66542e-21
2.20554e-08
0
0
0
3.98704e-40
2.71997e-21
6.64689e-34
0
5.31181e-07
6.01018e-05
1.59534e-09
1.99521e-10
0
9.62111e-23
1.04684e-22
1.91639e-22
0
0
1.74774e-05
1.80212e-05
1.78801e-09
2.05799e-09
4.73873e-09
2.14107e-09
8.6719e-33
0
1.23882e-12
1.49372e-12
8.36968e-13
0
0
0
0
0
0
0
5.86469e-12
0.000236521
0
0.851953
0.203228
0
4.57794e-06
1.83423e-32
2.69436e-33
1.63485e-33
0.00537238
1.92592e-24
0
0
0
0
0
9.25379e-25
7.5159e-26
2.26557e-23
1.60402e-23
1.26072e-22
0
9.37272e-24
0
3.93535e-24
0
7.84062e-25
5.94081e-23
0
2.59487e-20
4.09729e-07
9.98464e-50
4.91602e-64
6.95308e-26
0
1.46047e-26
1.32178e-65
3.4655e-66
1.98575e-09
2.7138e-09
4.2176e-63
1.62033e-63
1.14114e-63
0
2.0968e-58
0
0
0
9.70194e-39
8.15942e-30
0
0
0
1.198e-26
1.81387e-26
2.16099e-26
2.36371e-26
5.06663e-09
2.07135e-09
1.62672e-23
5.0161e-24
1.24663e-26
9.80836e-27
3.17817e-63
8.74885e-63
2.36861e-38
3.0946e-06
0
4.10543e-49
2.05434e-10
0
0
1.94376e-08
5.58048e-05
4.97074e-05
0
0
7.46792e-06
1.39208e-64
1.86724e-65
1.39842e-09
3.76748e-40
0
1.32645e-30
1.96041e-30
1.82392e-63
1.43352e-63
1.35978e-41
5.33025e-42
2.19459e-41
5.10022e-43
2.01964e-41
4.51197e-42
0
0
0
0
0
2.9869e-35
0
3.36643e-38
1.30248e-37
1.68878e-37
4.95443e-09
1.89435e-09
6.43935e-30
7.42311e-08
4.29753e-08
1.23448e-07
5.05754e-06
9.61717e-14
1.01135e-62
9.00948e-63
1.25703e-62
6.09011e-63
3.14293e-63
9.30547e-64
2.65946e-64
0
4.67364e-65
0
0
0
0
0
1.40831e-70
1.71965e-73
0
0
0
3.24394e-76
0
1.9368e-78
1.22807e-77
5.77921e-76
5.14043e-76
6.70412e-76
7.99499e-76
4.44118e-76
6.62008e-76
8.41803e-76
8.6392e-76
7.72552e-76
1.67457e-76
9.72647e-76
4.82257e-76
0
2.62822e-76
0
9.26338e-76
7.85633e-77
0
0
7.02187e-76
6.46267e-76
0
0
3.53823e-76
1.31572e-22
3.47811e-22
3.02828e-22
4.32885e-22
3.15495e-22
2.47347e-22
3.89146e-22
0
0
0
2.13776e-21
9.88842e-20
1.21729e-19
6.26717e-19
5.90598e-19
1.74418e-18
1.68737e-18
4.88946e-18
4.10706e-18
6.3999e-19
0
1.04351e-17
5.33474e-18
1.46787e-17
2.79348e-18
2.34426e-18
2.24002e-18
0
8.49483e-19
4.73244e-45
7.07064e-24
2.02336e-24
1.76396e-23
9.48742e-25
3.41008e-25
7.92825e-25
1.15848e-25
2.99653e-25
9.8585e-27
0
6.39358e-59
0
5.26685e-33
0
6.29568e-38
1.79303e-37
1.93405e-37
2.08346e-38
1.53469e-37
0
0
0
2.13544e-38
5.74497e-36
7.44156e-10
9.24306e-10
0
0.000338993
4.11036e-13
1.7764e-14
0
0
4.93611e-12
4.95741e-12
2.12497e-06
4.60554e-09
1.60599e-09
0
0
1.11011e-20
6.13484e-21
7.93645e-22
4.07865e-39
2.69086e-12
2.00331e-27
9.25736e-28
0
9.42094e-28
0
6.94204e-21
0
0
2.90263e-59
1.98907e-58
8.32427e-59
0
6.71255e-08
2.4063e-08
1.69233e-07
0
0
0.0015047
0.000947646
0.00217034
0.000186621
0
0
1.02993e-49
1.52864e-48
0
0
7.64808e-10
8.86034e-10
9.98517e-26
7.74767e-26
2.4815e-66
1.18301e-66
3.6102e-64
8.8973e-65
1.16334e-64
7.22172e-63
0
3.28402e-61
0
0
0
0
0
5.08427e-16
0
4.802e-17
0
1.56775e-47
0
1.01215e-11
0.000131769
0.000108288
1.25338e-07
0
0
0
0
0
0
0
0
1.14078e-32
1.50901e-20
1.15865e-28
5.36389e-28
0.00822911
3.65922e-38
0
1.7967e-10
0
9.09364e-47
0.339049
2.75391e-06
0
2.05355e-10
1.95867e-10
1.04647e-09
1.52798e-10
9.09851e-12
0
0
2.61767e-38
7.05279e-38
0
0
2.46452e-35
6.87716e-64
2.38833e-64
2.69526e-43
8.3925e-47
6.46752e-31
6.52369e-31
2.11426e-30
4.79818e-31
4.77891e-31
3.7581e-42
6.4461e-42
0
0
0
1.12088e-51
0
0
0
5.98736e-77
2.52034e-33
0
6.71711e-32
7.65051e-31
2.21264e-29
2.62863e-29
1.23613e-28
1.09465e-28
2.83209e-29
8.79022e-29
1.45883e-28
8.95873e-29
6.35015e-29
4.49632e-29
2.79475e-31
0
0
0
7.63376e-27
1.04855e-26
2.54385e-28
1.13904e-26
7.51735e-28
1.04251e-26
7.25392e-26
1.04285e-27
8.15786e-27
1.10826e-27
5.56302e-27
2.15595e-26
1.15071e-26
2.63527e-26
1.07496e-26
5.43871e-27
4.00837e-27
3.81221e-27
8.51947e-28
1.35407e-27
0
0
0
0
0
0
4.13421e-27
1.68903e-25
1.78676e-25
1.33148e-26
1.4088e-25
0
5.92866e-25
2.27404e-25
8.08119e-26
6.20838e-26
8.9172e-26
1.51995e-25
1.80767e-24
1.30908e-24
1.883e-25
5.84349e-25
1.35438e-24
2.08936e-25
0
3.79672e-25
3.04934e-27
3.22506e-25
0
0
0
0
0
0
0
0
0
0
4.14856e-19
1.30627e-17
9.95605e-18
6.5681e-19
6.59903e-18
4.45546e-17
2.38339e-17
1.1799e-16
5.61027e-17
1.20794e-17
2.56513e-17
1.00269e-16
4.25317e-17
1.45628e-16
5.81712e-17
1.78519e-16
6.7826e-17
2.26173e-17
2.51506e-17
6.91841e-17
2.47276e-17
6.32824e-17
2.17284e-17
5.0854e-17
1.67337e-17
3.58341e-17
7.28615e-18
5.38094e-18
2.38695e-18
1.69164e-18
7.64129e-19
8.56749e-18
5.2014e-19
1.05725e-18
2.39134e-19
3.22529e-19
1.02817e-19
5.83652e-18
1.50966e-16
7.3188e-20
3.20374e-20
1.27274e-19
0
0
2.50341e-16
3.98485e-29
7.74622e-59
2.63085e-59
1.06085e-13
1.65743e-12
0
1.55341e-11
1.34737e-11
3.98336e-09
1.23447e-09
1.18119e-08
6.7191e-27
2.182e-28
0
0
0
0
1.75204e-30
3.19221e-30
1.70871e-30
3.98035e-30
2.53937e-20
2.41087e-20
1.71639e-05
0
0
4.34876e-15
0
0
4.10375e-20
0
1.37883e-26
1.8454e-30
1.15938e-30
3.75813e-30
5.09203e-31
1.08233e-32
0
0
0
8.08875e-37
2.80964e-36
0
3.39599e-36
4.12217e-36
3.6383e-36
2.15461e-37
0
1.22058e-37
8.61646e-38
9.65411e-38
1.8718e-37
9.10382e-38
1.51188e-38
7.05465e-39
2.26816e-21
4.52312e-23
7.28832e-38
1.25684e-39
0
0
2.19637e-36
1.52727e-36
1.4233e-08
5.68153e-09
3.21093e-48
5.33558e-48
5.82961e-61
0.00833684
0
0
0.00291221
0.000361047
8.72606e-08
1.96685e-07
0
0
0
0
0
0
5.64537e-51
6.22988e-49
0
0
2.07875e-29
2.18226e-27
3.5744e-28
7.87329e-27
1.98471e-27
2.59548e-26
8.64562e-27
7.92426e-26
3.28674e-26
2.25655e-25
3.22649e-25
7.80553e-25
7.74794e-25
1.64045e-24
1.78067e-24
1.16855e-24
3.28667e-24
3.86744e-24
6.23571e-24
7.93019e-24
3.5954e-24
8.00763e-24
2.5376e-24
6.25694e-24
1.66838e-23
1.4468e-23
3.59383e-24
9.38011e-24
3.13729e-23
2.27356e-23
4.11392e-24
1.16417e-23
1.01621e-09
0
0
0
4.58213e-16
0
0
1.06452e-21
9.98451e-20
0
2.226e-19
2.72252e-19
3.72373e-19
3.82852e-19
4.54739e-19
5.63409e-19
5.22457e-19
7.20242e-19
5.63853e-19
3.19141e-19
8.27003e-19
5.64498e-19
8.99407e-19
5.32048e-19
9.11189e-19
4.68864e-19
8.74441e-19
3.83992e-19
1.46236e-19
9.53735e-20
2.89269e-19
5.38671e-20
1.98269e-19
2.48796e-20
1.21486e-19
7.97522e-21
6.41581e-20
1.94624e-20
0
2.31423e-22
2.76278e-20
0
8.07259e-21
5.05061e-19
0
1.39411e-22
0
6.60837e-20
2.67635e-20
1.92032e-08
5.87629e-05
1.14589e-05
1.7127e-05
7.48618e-06
0.00628565
0
0
0
0
0
2.95156e-57
0
1.38521e-56
0
0
0
0
0
0
3.06232e-48
5.56643e-49
1.52352e-47
5.54161e-48
2.89252e-47
1.31962e-47
3.30617e-47
1.79279e-47
1.09715e-47
1.07903e-47
0
0
0
0
0
0
3.19364e-42
2.36743e-43
2.63102e-41
7.48727e-41
1.40317e-40
6.0331e-41
1.7066e-40
8.29298e-41
9.0956e-41
6.46178e-41
0
0
0
0
0
8.30237e-37
6.37384e-35
1.60849e-35
2.20397e-34
5.23816e-34
8.41315e-34
1.62609e-33
1.64318e-33
2.53554e-33
7.38772e-34
2.3195e-34
0
0
4.10994e-34
0
0
3.56105e-28
1.03596e-27
9.25287e-29
4.48464e-27
9.17496e-27
4.08644e-30
3.0861e-33
2.00364e-26
3.61721e-26
5.12958e-26
8.2217e-26
3.079e-26
6.29005e-26
1.28523e-25
1.04721e-25
1.8808e-25
3.02856e-40
1.66e-25
2.5777e-25
6.28227e-26
8.13939e-26
1.27581e-25
1.18588e-25
3.23926e-25
6.9179e-26
0
0
0
0
0
0
5.74725e-22
3.13341e-21
0
9.8623e-21
5.2716e-20
9.89683e-20
2.36612e-20
1.75784e-19
4.08798e-19
6.31905e-19
9.9018e-19
1.38854e-18
2.96594e-19
0
0
0
0
0
5.06479e-20
0
7.18791e-19
1.28056e-19
1.90452e-18
4.08241e-19
3.1517e-18
7.32724e-19
4.01667e-18
9.79705e-19
4.27176e-18
1.07723e-18
3.963e-18
1.02824e-18
1.49654e-17
3.25355e-18
8.63584e-19
0
0
0
2.19316e-20
9.76366e-21
0
1.00913e-59
2.49647e-60
0
0
0
0
0
0
0
0
1.71273e-30
2.31153e-31
0
0
0.00430399
0.00153854
0.0167974
1.45246e-16
6.21593e-18
0.00812876
0.0439587
3.13729e-09
8.35441e-10
3.08819e-10
1.66866e-10
4.75572e-10
6.69298e-11
2.08703e-10
9.21898e-12
4.77984e-11
0
0
0
0
6.54226e-17
0
1.97828e-11
1.2029e-18
0
0
0
0
0
1.05182e-18
0
0
0
0
4.00505e-11
4.73537e-11
3.04446e-11
4.61443e-20
0
7.38805e-21
0
4.97348e-09
0
0
0
1.04549e-22
0
1.44127e-28
1.92737e-40
2.0816e-62
0
0
1.70557e-44
0
7.88397e-62
8.928e-63
4.23101e-62
1.47645e-64
1.26832e-66
0
0
0
1.30748e-71
0
4.03739e-70
2.04759e-70
2.42513e-70
1.09197e-70
1.0075e-70
5.47235e-71
1.40607e-70
2.03628e-45
0
0
0
9.90379e-30
0
0
3.1754e-05
0
6.72582e-08
0
1.92394e-32
0
1.09505e-09
7.85915e-10
5.12914e-10
3.79468e-10
5.36615e-10
2.67074e-10
3.51443e-10
1.7997e-10
2.24461e-10
1.17797e-10
1.44392e-10
7.69451e-11
9.81532e-11
1.79185e-10
5.32173e-11
1.25444e-10
2.22587e-10
1.53761e-10
2.60282e-10
2.64559e-19
7.51917e-76
0.000467749
1.1721e-32
4.29172e-37
8.817e-10
3.56721e-14
0
2.13886e-58
3.62643e-09
6.33048e-26
0
0.00533424
2.91264e-19
7.58243e-23
7.05793e-30
5.13153e-30
7.26425e-30
5.91688e-30
2.89486e-30
3.33187e-30
4.47185e-30
0
3.16653e-30
3.19041e-30
2.88789e-30
2.17785e-30
2.32105e-30