/*--------------------------------*- C++ -*----------------------------------*\
  =========                 |
  \\      /  F ield         | OpenFOAM: The Open Source CFD Toolbox
   \\    /   O peration     | Website:  https://openfoam.org
    \\  /    A nd           | Version:  6
     \\/     M anipulation  |
\*---------------------------------------------------------------------------*/
FoamFile
{
    version     2.0;
    format      ascii;
    class       volScalarField;
    location    "345600";
    object      Cg0;
}
// * * * * * * * * * * * * * * * * * * * * * * * * * * * * * * * * * * * * * //

dimensions      [1 -3 0 0 0 0 0];

internalField   nonuniform List<scalar> 
184
(
4.34187e-10
4.34187e-10
4.3416e-10
4.33986e-10
4.34146e-10
4.36319e-10
4.91912e-10
1.28646e-09
4.76991e-09
5.40203e-09
8.04283e-07
0.000703974
0.0038716
0.00872485
0.0151054
0.0226663
0.0310469
0.0399375
0.0490928
0.0583279
0.067507
0.0765332
0.085338
0.0938747
0.102112
0.110031
0.11762
0.12461
0.11664
0.108798
0.101335
0.0942416
0.0875077
0.081122
0.0750737
0.0693514
0.0639438
0.0588392
0.0540261
0.0494928
0.0452276
0.041219
0.0374553
0.0339253
0.0306177
0.0275216
0.0246262
0.021921
0.0193961
0.0170413
0.0148474
0.012805
0.0109053
0.00913989
0.00750053
0.00597958
0.00456932
0.00326292
0.00205527
0.000941505
6.7688e-05
1.02579e-05
2.16192e-06
2.58226e-07
9.27484e-09
1.64748e-09
3.05369e-10
5.02264e-09
5.49191e-09
4.71312e-09
4.40941e-09
4.27286e-09
4.17152e-09
4.06539e-09
3.94901e-09
3.82567e-09
3.69882e-09
3.57039e-09
3.44116e-09
3.31142e-09
3.18134e-09
3.05114e-09
2.92119e-09
2.79195e-09
2.66392e-09
2.53765e-09
2.41367e-09
2.2925e-09
2.17459e-09
2.06037e-09
1.95018e-09
1.84433e-09
1.74304e-09
1.64649e-09
1.5548e-09
1.46801e-09
1.38615e-09
1.30919e-09
1.23704e-09
1.1696e-09
1.10675e-09
1.04831e-09
9.94122e-10
9.43985e-10
8.97701e-10
8.55064e-10
8.15866e-10
7.79897e-10
7.46951e-10
7.16824e-10
6.89321e-10
6.64251e-10
6.41432e-10
6.20692e-10
6.01865e-10
5.84798e-10
5.69343e-10
5.55365e-10
5.42737e-10
5.31341e-10
5.21068e-10
5.11815e-10
5.03491e-10
4.9601e-10
4.89292e-10
4.83265e-10
4.77864e-10
4.73027e-10
4.68701e-10
4.64834e-10
4.61382e-10
4.58304e-10
4.55562e-10
4.53123e-10
4.50958e-10
4.49039e-10
4.47342e-10
4.45848e-10
4.44538e-10
4.43398e-10
4.42416e-10
4.41582e-10
4.40891e-10
4.4034e-10
4.3993e-10
4.39667e-10
4.3956e-10
4.39627e-10
4.3989e-10
4.40379e-10
4.41137e-10
4.42215e-10
4.43681e-10
4.45617e-10
4.48129e-10
4.51343e-10
4.55414e-10
4.60525e-10
4.66794e-10
4.75707e-10
4.98935e-10
4.57582e-10
4.34788e-10
4.19507e-10
4.09588e-10
4.02693e-10
3.97448e-10
3.93159e-10
3.89485e-10
3.86263e-10
3.8342e-10
3.80922e-10
3.78747e-10
3.76877e-10
3.75285e-10
3.73942e-10
3.72807e-10
3.71835e-10
3.71012e-10
3.70475e-10
3.70535e-10
3.73942e-10
3.91009e-10
4.34187e-10
)
;

boundaryField
{
    bc0
    {
        type            zeroGradient;
    }
    bc1
    {
        type            zeroGradient;
    }
    bc2
    {
        type            zeroGradient;
    }
    bc3
    {
        type            zeroGradient;
    }
    top
    {
        type            zeroGradient;
    }
    bottom
    {
        type            zeroGradient;
    }
}


// ************************************************************************* //
