/*--------------------------------*- C++ -*----------------------------------*\
  =========                 |
  \\      /  F ield         | OpenFOAM: The Open Source CFD Toolbox
   \\    /   O peration     | Website:  https://openfoam.org
    \\  /    A nd           | Version:  6
     \\/     M anipulation  |
\*---------------------------------------------------------------------------*/
FoamFile
{
    version     2.0;
    format      ascii;
    class       volScalarField;
    location    "345600";
    object      Cg1;
}
// * * * * * * * * * * * * * * * * * * * * * * * * * * * * * * * * * * * * * //

dimensions      [1 -3 0 0 0 0 0];

internalField   nonuniform List<scalar> 
184
(
0.000874926
0.000874926
0.000874877
0.000874773
0.000875651
0.000894251
0.00127801
0.00481761
0.0168284
0.0359416
0.0565371
0.0709292
0.0768551
0.0815606
0.0853127
0.0883134
0.0907308
0.0926975
0.0943166
0.0956672
0.0968099
0.0977915
0.0986481
0.0994075
0.100092
0.100718
0.1013
0.101752
0.103437
0.104953
0.106399
0.107778
0.109092
0.110346
0.111541
0.11268
0.113764
0.114797
0.115781
0.116718
0.117609
0.118458
0.119265
0.120033
0.120765
0.121461
0.122123
0.122754
0.123354
0.123927
0.124472
0.124992
0.125488
0.125961
0.126412
0.126843
0.127258
0.12766
0.128036
0.128384
0.127819
0.122314
0.116725
0.111323
0.106127
0.101138
0.0963516
0.0917598
0.0873565
0.0831352
0.0790899
0.0752146
0.0715038
0.0679519
0.0645534
0.0613031
0.0581959
0.0552267
0.0523906
0.0496829
0.0470988
0.0446338
0.0422834
0.0400433
0.0379093
0.0358772
0.033943
0.0321028
0.0303529
0.0286895
0.0271092
0.0256084
0.0241837
0.022832
0.02155
0.0203348
0.0191834
0.0180928
0.0170605
0.0160837
0.0151598
0.0142864
0.0134611
0.0126817
0.0119458
0.0112514
0.0105964
0.00997897
0.0093971
0.00884904
0.00833306
0.00784751
0.0073908
0.00696144
0.00655795
0.00617896
0.00582313
0.00548921
0.00517598
0.00488229
0.00460705
0.00434923
0.00410783
0.00388191
0.00367057
0.00347297
0.0032883
0.00311579
0.00295472
0.0028044
0.00266418
0.00253345
0.00241163
0.00229816
0.00219253
0.00209424
0.00200284
0.00191788
0.00183896
0.0017657
0.00169772
0.00163471
0.00157633
0.0015223
0.00147233
0.00142618
0.0013836
0.00134438
0.00130831
0.00127523
0.00124495
0.00121735
0.00119228
0.00116963
0.00114933
0.00113129
0.00111547
0.00110182
0.00109023
0.00108017
0.00107576
0.00102663
0.000985314
0.000947043
0.000914391
0.000887671
0.000865913
0.000847947
0.000832778
0.000819673
0.000808144
0.000797899
0.000788782
0.000780722
0.000773689
0.000767655
0.00076257
0.00075835
0.000754978
0.000752976
0.000753542
0.000764401
0.000803275
0.000874926
)
;

boundaryField
{
    bc0
    {
        type            zeroGradient;
    }
    bc1
    {
        type            zeroGradient;
    }
    bc2
    {
        type            zeroGradient;
    }
    bc3
    {
        type            zeroGradient;
    }
    top
    {
        type            zeroGradient;
    }
    bottom
    {
        type            zeroGradient;
    }
}


// ************************************************************************* //
