/*--------------------------------*- C++ -*----------------------------------*\
  =========                 |
  \\      /  F ield         | OpenFOAM: The Open Source CFD Toolbox
   \\    /   O peration     | Website:  https://openfoam.org
    \\  /    A nd           | Version:  6
     \\/     M anipulation  |
\*---------------------------------------------------------------------------*/
FoamFile
{
    version     2.0;
    format      ascii;
    class       volScalarField;
    location    "345600";
    object      Cg3;
}
// * * * * * * * * * * * * * * * * * * * * * * * * * * * * * * * * * * * * * //

dimensions      [1 -3 0 0 0 0 0];

internalField   nonuniform List<scalar> 
184
(
0.199841
0.199841
0.199837
0.199881
0.198612
0.182066
0.135725
0.0887656
0.0530184
0.027168
0.00832064
1.75708e-05
1.01163e-05
1.54923e-05
1.34776e-05
1.18013e-05
1.03345e-05
9.01812e-06
7.81686e-06
6.70913e-06
5.68042e-06
4.7199e-06
3.81896e-06
2.97099e-06
2.17248e-06
1.41298e-06
6.91482e-07
3.10067e-75
1.0511e-06
2.07735e-06
3.02213e-06
3.94399e-06
4.82669e-06
5.67395e-06
6.48755e-06
7.26904e-06
8.01976e-06
8.7409e-06
9.43352e-06
1.00986e-05
1.0737e-05
1.13497e-05
1.19375e-05
1.25014e-05
1.30424e-05
1.35617e-05
1.4061e-05
1.45427e-05
1.50107e-05
1.54704e-05
1.59283e-05
1.63902e-05
1.68593e-05
1.73391e-05
1.78464e-05
1.84535e-05
1.25961e-05
1.22407e-77
5.15365e-75
1.03984e-05
0.00106729
0.00803754
0.0151542
0.022092
0.028824
0.0353459
0.0416616
0.0477767
0.0536963
0.0594255
0.064969
0.0703316
0.0755175
0.0805314
0.0853773
0.0900595
0.094582
0.098949
0.103164
0.107232
0.111156
0.11494
0.118587
0.122102
0.125488
0.128749
0.131888
0.134909
0.137816
0.140611
0.143297
0.14588
0.14836
0.150742
0.153029
0.155224
0.157329
0.159349
0.161284
0.163139
0.164916
0.166617
0.168246
0.169805
0.171296
0.172722
0.174085
0.175388
0.176632
0.17782
0.178954
0.180036
0.181068
0.182053
0.182991
0.183885
0.184736
0.185547
0.186318
0.187052
0.187751
0.188415
0.189046
0.189645
0.190215
0.190756
0.191269
0.191756
0.192217
0.192655
0.19307
0.193463
0.193836
0.194188
0.194521
0.194837
0.195135
0.195417
0.195683
0.195935
0.196172
0.196396
0.196607
0.196806
0.196993
0.197169
0.197334
0.19749
0.197635
0.197771
0.197897
0.198015
0.198124
0.198225
0.198317
0.198401
0.198476
0.198543
0.198601
0.198653
0.198728
0.198675
0.198665
0.198675
0.198702
0.198745
0.198798
0.198858
0.198918
0.198976
0.199028
0.199071
0.199098
0.199098
0.199046
0.198896
0.198571
0.197969
0.197006
0.195762
0.194748
0.194891
0.196854
0.19984
)
;

boundaryField
{
    bc0
    {
        type            zeroGradient;
    }
    bc1
    {
        type            zeroGradient;
    }
    bc2
    {
        type            zeroGradient;
    }
    bc3
    {
        type            zeroGradient;
    }
    top
    {
        type            zeroGradient;
    }
    bottom
    {
        type            zeroGradient;
    }
}


// ************************************************************************* //
