/*--------------------------------*- C++ -*----------------------------------*\
  =========                 |
  \\      /  F ield         | OpenFOAM: The Open Source CFD Toolbox
   \\    /   O peration     | Website:  https://openfoam.org
    \\  /    A nd           | Version:  6
     \\/     M anipulation  |
\*---------------------------------------------------------------------------*/
FoamFile
{
    version     2.0;
    format      ascii;
    class       volScalarField;
    location    "345600";
    object      Cw1;
}
// * * * * * * * * * * * * * * * * * * * * * * * * * * * * * * * * * * * * * //

dimensions      [0 -3 0 0 1 0 0];

internalField   nonuniform List<scalar> 
184
(
0.000431363
0.000431363
0.000431332
0.000431037
0.000431105
0.000431218
0.00043184
0.000433089
0.000434246
0.000435735
0.000437296
0.000438384
0.000438842
0.000439215
0.000439487
0.000439745
0.000439909
0.000440089
0.000440189
0.000440322
0.000440382
0.000440489
0.000440525
0.00044065
0.000442299
0.00050015
0.00196165
0.0166013
0.00147609
0.000473165
0.000441721
0.00044122
0.000441324
0.000441385
0.000441501
0.000441556
0.000441661
0.00044171
0.000441808
0.000441852
0.000441941
0.00044198
0.000442062
0.000442097
0.000442172
0.000442203
0.000442272
0.000442299
0.000442362
0.000442386
0.000442444
0.000442465
0.000442518
0.000442537
0.000442586
0.000442602
0.000442649
0.000443691
0.000442755
0.000442715
0.000442682
0.000442267
0.00044187
0.000441461
0.000441091
0.000440712
0.000440371
0.000440021
0.000439707
0.000439384
0.000439095
0.000438798
0.000438533
0.000438259
0.000438017
0.000437765
0.000437543
0.000437312
0.00043711
0.000436898
0.000436714
0.00043652
0.000436352
0.000436175
0.000436023
0.000435861
0.000435723
0.000435575
0.00043545
0.000435315
0.000435198
0.000435086
0.000434969
0.000434871
0.000434764
0.000434676
0.000434578
0.000434498
0.000434409
0.000434336
0.000434255
0.000434189
0.000434114
0.000434051
0.000433988
0.000433927
0.000433869
0.000433813
0.000433758
0.000433706
0.000433655
0.000433606
0.000433584
0.000433489
0.000433469
0.000433425
0.000433381
0.000433338
0.000433295
0.000433253
0.000433212
0.000433171
0.000433129
0.000433088
0.000433047
0.000433006
0.000432965
0.000432923
0.000432881
0.000432838
0.000432795
0.000432752
0.000432728
0.00043265
0.000432625
0.000432581
0.000432536
0.000432492
0.000432448
0.000432404
0.000432361
0.000432317
0.000432275
0.000432232
0.000432191
0.00043215
0.00043211
0.000432072
0.000432034
0.000431998
0.000431964
0.00043193
0.000431898
0.000431884
0.000431831
0.000431821
0.000431798
0.000431818
0.000431906
0.000456243
0.000568486
0.000494136
0.000456261
0.000434613
0.000421273
0.000411786
0.000404283
0.000397951
0.000392433
0.00038758
0.000383331
0.000379657
0.000376534
0.000373927
0.000371787
0.000370057
0.000368665
0.00036754
0.000366635
0.00036604
0.000365975
0.000368578
0.000384115
0.000431363
)
;

boundaryField
{
    bc0
    {
        type            zeroGradient;
    }
    bc1
    {
        type            zeroGradient;
    }
    bc2
    {
        type            zeroGradient;
    }
    bc3
    {
        type            zeroGradient;
    }
    top
    {
        type            zeroGradient;
    }
    bottom
    {
        type            zeroGradient;
    }
}


// ************************************************************************* //
