/*--------------------------------*- C++ -*----------------------------------*\
  =========                 |
  \\      /  F ield         | OpenFOAM: The Open Source CFD Toolbox
   \\    /   O peration     | Website:  https://openfoam.org
    \\  /    A nd           | Version:  6
     \\/     M anipulation  |
\*---------------------------------------------------------------------------*/
FoamFile
{
    version     2.0;
    format      ascii;
    class       volScalarField;
    location    "345600";
    object      Cw2;
}
// * * * * * * * * * * * * * * * * * * * * * * * * * * * * * * * * * * * * * //

dimensions      [0 -3 0 0 1 0 0];

internalField   nonuniform List<scalar> 
184
(
0.0018661
0.0018661
0.00186599
0.00186521
0.00186223
0.00182152
0.00173036
0.00185285
0.00257851
0.0038119
0.00516382
0.00612109
0.00652406
0.00684397
0.00709898
0.0073031
0.00746744
0.00760133
0.00771144
0.00780347
0.00788121
0.00794817
0.00800643
0.00805838
0.0081098
0.00832708
0.0127576
0.0567297
0.0114453
0.00853272
0.0085357
0.00862771
0.00871716
0.00880232
0.00888366
0.008961
0.00903484
0.00910502
0.009172
0.00923562
0.00929632
0.00935396
0.00940895
0.00946116
0.00951097
0.00955825
0.00960338
0.00964624
0.00968717
0.00972605
0.00976321
0.00979853
0.00983231
0.00986442
0.00989511
0.00992432
0.00995292
0.00998011
0.0100055
0.0100278
0.00998893
0.00963472
0.00927361
0.00892415
0.00858818
0.00826568
0.00795643
0.00765986
0.00737566
0.00710329
0.00684247
0.00659268
0.00635369
0.00612499
0.00590636
0.00569732
0.00549766
0.00530693
0.00512492
0.0049512
0.00478557
0.00462763
0.00447718
0.00433384
0.00419743
0.00406758
0.00394412
0.00382671
0.00371518
0.00360921
0.00350864
0.00341321
0.00332266
0.00323686
0.00315552
0.00307853
0.00300559
0.00293662
0.00287135
0.00280969
0.00275139
0.00269637
0.00264439
0.00259537
0.00254914
0.00250556
0.00246449
0.00242582
0.00238942
0.00235518
0.00232297
0.0022927
0.00226434
0.00223749
0.00221251
0.00218899
0.00216695
0.00214628
0.00212692
0.00210879
0.00209183
0.00207595
0.00206111
0.00204724
0.00203428
0.00202218
0.00201088
0.00200035
0.00199052
0.00198136
0.00197283
0.00196488
0.00195755
0.00195056
0.00194423
0.00193828
0.00193276
0.00192763
0.00192288
0.00191847
0.00191438
0.0019106
0.0019071
0.00190387
0.00190088
0.00189812
0.00189558
0.00189325
0.0018911
0.00188914
0.00188734
0.00188571
0.00188423
0.00188294
0.00188167
0.00188067
0.00187977
0.00187922
0.00187938
0.00195416
0.00229361
0.00206595
0.00194833
0.00187967
0.00183649
0.00180545
0.00178086
0.00176017
0.00174223
0.0017265
0.00171277
0.00170091
0.0016908
0.00168229
0.00167518
0.00166915
0.0016638
0.00165864
0.00165332
0.00164832
0.00164571
0.00165477
0.00170936
0.0018661
)
;

boundaryField
{
    bc0
    {
        type            zeroGradient;
    }
    bc1
    {
        type            zeroGradient;
    }
    bc2
    {
        type            zeroGradient;
    }
    bc3
    {
        type            zeroGradient;
    }
    top
    {
        type            zeroGradient;
    }
    bottom
    {
        type            zeroGradient;
    }
}


// ************************************************************************* //
