/*--------------------------------*- C++ -*----------------------------------*\
  =========                 |
  \\      /  F ield         | OpenFOAM: The Open Source CFD Toolbox
   \\    /   O peration     | Website:  https://openfoam.org
    \\  /    A nd           | Version:  6
     \\/     M anipulation  |
\*---------------------------------------------------------------------------*/
FoamFile
{
    version     2.0;
    format      ascii;
    class       volScalarField;
    location    "345600";
    object      Cw6;
}
// * * * * * * * * * * * * * * * * * * * * * * * * * * * * * * * * * * * * * //

dimensions      [0 -3 0 0 1 0 0];

internalField   nonuniform List<scalar> 
184
(
0.000299133
0.000299133
0.000299111
0.000298905
0.000298951
0.000299
0.00029902
0.000299026
0.000299031
0.00029904
0.000299051
0.000299062
0.000299076
0.000299093
0.00029909
0.000299115
0.000299105
0.000299129
0.000299116
0.000299139
0.000299122
0.000299146
0.000299126
0.00029915
0.000299128
0.000299155
0.000299198
0.000299884
0.000299177
0.000299152
0.000299127
0.000299137
0.000299148
0.000299126
0.000299145
0.000299125
0.000299143
0.000299124
0.000299142
0.000299124
0.000299141
0.000299124
0.00029914
0.000299125
0.00029914
0.000299126
0.00029914
0.000299126
0.00029914
0.000299127
0.000299139
0.000299127
0.000299139
0.000299128
0.000299139
0.000299128
0.000299139
0.000299128
0.000299138
0.000299128
0.000299138
0.000299129
0.000299138
0.000299129
0.000299137
0.000299129
0.000299137
0.000299129
0.000299137
0.000299129
0.000299137
0.00029913
0.000299137
0.00029913
0.000299137
0.00029913
0.000299136
0.00029913
0.000299136
0.00029913
0.000299136
0.00029913
0.000299136
0.00029913
0.000299136
0.00029913
0.000299136
0.000299131
0.000299136
0.000299131
0.000299133
0.000299136
0.000299131
0.000299136
0.000299131
0.000299135
0.000299131
0.000299135
0.000299131
0.000299135
0.000299131
0.000299135
0.000299131
0.000299133
0.000299133
0.000299133
0.000299133
0.000299133
0.000299133
0.000299133
0.000299132
0.000299132
0.00029915
0.000299117
0.000299134
0.000299134
0.000299134
0.000299133
0.000299133
0.000299133
0.000299133
0.000299133
0.000299133
0.000299133
0.000299133
0.000299133
0.000299133
0.000299133
0.000299133
0.000299133
0.000299132
0.000299132
0.000299146
0.000299121
0.000299134
0.000299134
0.000299134
0.000299133
0.000299133
0.000299133
0.000299133
0.000299133
0.000299133
0.000299133
0.000299133
0.000299133
0.000299133
0.000299133
0.000299133
0.000299133
0.000299133
0.000299133
0.000299132
0.000299142
0.000299124
0.000299134
0.000299134
0.000299161
0.000299234
0.000316191
0.000394507
0.000342679
0.000316325
0.000301288
0.000292036
0.000285461
0.000280262
0.000275875
0.000272051
0.000268687
0.000265743
0.000263197
0.000261033
0.000259228
0.000257747
0.000256549
0.000255586
0.000254808
0.000254182
0.00025377
0.000253724
0.000255522
0.000266296
0.000299133
)
;

boundaryField
{
    bc0
    {
        type            zeroGradient;
    }
    bc1
    {
        type            zeroGradient;
    }
    bc2
    {
        type            zeroGradient;
    }
    bc3
    {
        type            zeroGradient;
    }
    top
    {
        type            zeroGradient;
    }
    bottom
    {
        type            zeroGradient;
    }
}


// ************************************************************************* //
