/*--------------------------------*- C++ -*----------------------------------*\
  =========                 |
  \\      /  F ield         | OpenFOAM: The Open Source CFD Toolbox
   \\    /   O peration     | Website:  https://openfoam.org
    \\  /    A nd           | Version:  6
     \\/     M anipulation  |
\*---------------------------------------------------------------------------*/
FoamFile
{
    version     2.0;
    format      ascii;
    class       volScalarField;
    location    "345600";
    object      Cw8;
}
// * * * * * * * * * * * * * * * * * * * * * * * * * * * * * * * * * * * * * //

dimensions      [0 -3 0 0 1 0 0];

internalField   nonuniform List<scalar> 
184
(
0.00087567
0.00087567
0.00087567
0.000875625
0.000877015
0.000895128
0.000945476
0.000993012
0.00101897
0.00102634
0.0010244
0.00101698
0.00100704
0.000996556
0.000985453
0.000973889
0.000962071
0.000950192
0.000938406
0.000926828
0.000915538
0.000904592
0.000894024
0.000883853
0.000874088
0.000864724
0.000855624
0.000845573
0.000854409
0.000861455
0.000868061
0.000874329
0.00088027
0.000885893
0.000891211
0.000896233
0.000900971
0.000905432
0.000909629
0.000913572
0.00091727
0.000920735
0.000923976
0.000927004
0.000929829
0.000932462
0.000934911
0.000937186
0.000939297
0.000941252
0.000943061
0.000944731
0.00094627
0.000947685
0.000948981
0.000950173
0.000951306
0.000952306
0.000953187
0.000953875
0.000953937
0.000952641
0.000951045
0.00094938
0.000947702
0.000946023
0.000944349
0.000942681
0.00094102
0.000939368
0.000937727
0.000936098
0.000934482
0.000932881
0.000931296
0.000929728
0.000928177
0.000926646
0.000925136
0.000923646
0.000922179
0.000920734
0.000919314
0.000917917
0.000916546
0.0009152
0.00091388
0.000912586
0.00091132
0.00091008
0.000908868
0.000907684
0.000906528
0.000905399
0.000904298
0.000903225
0.00090218
0.000901163
0.000900174
0.000899212
0.000898278
0.000897371
0.00089649
0.000895637
0.00089481
0.000894008
0.000893233
0.000892482
0.000891757
0.000891056
0.000890379
0.000889725
0.000889095
0.000888487
0.000887902
0.000887338
0.000886795
0.000886273
0.00088577
0.000885288
0.000884825
0.00088438
0.000883953
0.000883543
0.000883151
0.000882775
0.000882415
0.000882071
0.000881742
0.000881427
0.000881126
0.000880838
0.000880564
0.000880302
0.000880053
0.000879815
0.000879588
0.000879373
0.000879167
0.000878972
0.000878786
0.00087861
0.000878443
0.000878284
0.000878134
0.000877992
0.000877857
0.00087773
0.000877611
0.000877498
0.000877393
0.000877294
0.000877202
0.000877117
0.000877041
0.000876979
0.000876958
0.000877084
0.000877807
0.000880809
0.000882525
0.000882484
0.000881424
0.000880019
0.000878623
0.00087735
0.000876232
0.000875275
0.000874472
0.000873813
0.000873285
0.000872876
0.000872579
0.000872395
0.00087234
0.000872456
0.000872818
0.000873534
0.000874691
0.000876198
0.000877496
0.00087757
0.000875775
0.00087567
)
;

boundaryField
{
    bc0
    {
        type            zeroGradient;
    }
    bc1
    {
        type            zeroGradient;
    }
    bc2
    {
        type            zeroGradient;
    }
    bc3
    {
        type            zeroGradient;
    }
    top
    {
        type            zeroGradient;
    }
    bottom
    {
        type            zeroGradient;
    }
}


// ************************************************************************* //
