/*--------------------------------*- C++ -*----------------------------------*\
  =========                 |
  \\      /  F ield         | OpenFOAM: The Open Source CFD Toolbox
   \\    /   O peration     | Website:  https://openfoam.org
    \\  /    A nd           | Version:  6
     \\/     M anipulation  |
\*---------------------------------------------------------------------------*/
FoamFile
{
    version     2.0;
    format      ascii;
    class       volScalarField;
    location    "345600";
    object      hp;
}
// * * * * * * * * * * * * * * * * * * * * * * * * * * * * * * * * * * * * * //

dimensions      [0 1 0 0 0 0 0];

internalField   nonuniform List<scalar> 
184
(
0.02
0.0100009
1.7481e-06
-0.00999717
-0.0199958
-0.029994
-0.0399918
-0.0499887
-0.0599848
-0.0699795
-0.0799725
-0.0899634
-0.0999516
-0.109936
-0.119917
-0.129892
-0.139861
-0.149823
-0.159776
-0.16972
-0.179653
-0.189574
-0.199482
-0.209377
-0.219258
-0.229126
-0.23898
-0.248823
-0.258656
-0.268481
-0.278302
-0.288122
-0.297945
-0.307775
-0.317617
-0.327472
-0.337346
-0.347239
-0.357154
-0.367091
-0.37705
-0.387028
-0.397025
-0.407036
-0.417059
-0.427092
-0.437132
-0.447179
-0.457229
-0.467282
-0.477337
-0.487392
-0.497448
-0.507503
-0.517558
-0.527613
-0.537667
-0.547721
-0.557775
-0.567828
-0.577881
-0.587934
-0.597987
-0.608039
-0.618091
-0.628143
-0.638195
-0.648246
-0.658298
-0.668349
-0.678401
-0.688452
-0.698503
-0.708554
-0.718605
-0.728656
-0.738707
-0.748758
-0.758809
-0.76886
-0.77891
-0.788961
-0.799011
-0.809062
-0.819112
-0.829162
-0.83921
-0.849258
-0.859304
-0.869348
-0.879391
-0.889434
-0.899478
-0.909523
-0.91957
-0.929619
-0.939668
-0.949718
-0.959767
-0.969815
-0.979862
-0.989904
-0.999939
-1.00997
-1.01998
-1.02999
-1.04
-1.05
-1.06002
-1.07004
-1.0801
-1.09022
-1.10039
-1.11059
-1.12077
-1.13089
-1.14096
-1.15099
-1.161
-1.171
-1.181
-1.191
-1.201
-1.211
-1.221
-1.231
-1.241
-1.251
-1.261
-1.27102
-1.28106
-1.29117
-1.30136
-1.31162
-1.32183
-1.33194
-1.34198
-1.352
-1.362
-1.372
-1.382
-1.392
-1.402
-1.412
-1.422
-1.432
-1.442
-1.452
-1.462
-1.472
-1.48201
-1.49203
-1.50212
-1.51233
-1.52265
-1.53287
-1.54297
-1.55296
-1.54012
-0.773365
-0.331299
-0.206993
-0.154362
-0.126439
-0.109659
-0.0988433
-0.0916092
-0.0867128
-0.0834412
-0.0813582
-0.0801844
-0.0797353
-0.079888
-0.0805619
-0.0817074
-0.0832996
-0.0853351
-0.0878315
-0.0908298
-0.094399
-0.0986472
-0.103739
-0.109934
-0.117655
)
;

boundaryField
{
    bc0
    {
        type            fixedGradient;
        gradient        uniform -1;
    }
    bc1
    {
        type            zeroGradient;
    }
    bc2
    {
        type            zeroGradient;
    }
    bc3
    {
        type            zeroGradient;
    }
    top
    {
        type            zeroGradient;
    }
    bottom
    {
        type            zeroGradient;
    }
}


// ************************************************************************* //
