/*--------------------------------*- C++ -*----------------------------------*\
  =========                 |
  \\      /  F ield         | OpenFOAM: The Open Source CFD Toolbox
   \\    /   O peration     | Website:  https://openfoam.org
    \\  /    A nd           | Version:  6
     \\/     M anipulation  |
\*---------------------------------------------------------------------------*/
FoamFile
{
    version     2.0;
    format      ascii;
    class       surfaceScalarField;
    location    "345600";
    object      phiw;
}
// * * * * * * * * * * * * * * * * * * * * * * * * * * * * * * * * * * * * * //

dimensions      [0 3 -1 0 0 0 0];

internalField   nonuniform List<scalar> 
183
(
-5.78856e-07
-2.14328e-10
-2.06059e-10
-2.06308e-10
-2.06402e-10
-2.06309e-10
-2.06014e-10
-2.05505e-10
-2.04773e-10
-2.03805e-10
-2.02581e-10
-2.01071e-10
-1.9924e-10
-1.97043e-10
-1.9443e-10
-1.91348e-10
-1.87741e-10
-1.83556e-10
-1.78741e-10
-1.73252e-10
-1.67057e-10
-1.60135e-10
-1.52484e-10
-1.44123e-10
-1.35094e-10
-1.25464e-10
-1.15329e-10
-1.0481e-10
-9.40499e-11
-8.3214e-11
-7.24797e-11
-6.20303e-11
-5.2046e-11
-4.26937e-11
-3.41181e-11
-2.64324e-11
-1.97127e-11
-1.39936e-11
-9.26786e-12
-5.48938e-12
-2.57747e-12
-4.57708e-13
1.08884e-12
2.12065e-12
2.75135e-12
3.08036e-12
3.18952e-12
3.14834e-12
3.0124e-12
2.82363e-12
2.61172e-12
2.39622e-12
2.18889e-12
1.99596e-12
1.81993e-12
1.6611e-12
1.51858e-12
1.3909e-12
1.27648e-12
1.17375e-12
1.08132e-12
9.97942e-13
9.22544e-13
8.54199e-13
7.92107e-13
7.35577e-13
6.84008e-13
6.36877e-13
5.93728e-13
5.54156e-13
5.1781e-13
4.84375e-13
4.53574e-13
4.25162e-13
3.98918e-13
3.74646e-13
3.52169e-13
3.31328e-13
3.11972e-13
2.93959e-13
2.77132e-13
2.61307e-13
2.46239e-13
2.316e-13
2.16996e-13
2.0206e-13
1.86686e-13
1.71319e-13
1.57077e-13
1.4544e-13
1.37449e-13
1.32969e-13
1.30679e-13
1.28862e-13
1.26284e-13
1.22501e-13
1.17564e-13
1.11509e-13
1.0399e-13
9.42191e-14
8.13508e-14
6.52894e-14
4.74697e-14
3.06977e-14
1.78339e-14
1.06769e-14
1.04897e-14
1.98316e-14
4.36762e-14
8.68739e-14
1.46059e-13
2.0116e-13
2.21645e-13
1.92869e-13
1.327e-13
7.30981e-14
3.28114e-14
1.22245e-14
3.8456e-15
1.037e-15
2.42884e-16
5.01883e-17
1.06368e-17
1.03497e-17
4.73281e-17
2.26788e-16
9.73956e-16
3.66385e-15
1.17894e-14
3.14759e-14
6.70371e-14
1.08452e-13
1.26604e-13
1.04116e-13
6.11488e-14
2.67009e-14
9.03926e-15
2.45816e-15
5.52408e-16
1.04908e-16
1.71402e-17
2.44474e-18
3.13221e-19
8.38722e-20
4.18858e-19
3.18942e-18
2.20143e-17
1.34358e-16
7.09565e-16
3.15161e-15
1.13239e-14
3.11564e-14
6.06909e-14
7.57245e-14
5.83091e-14
2.62683e-14
-1.42646e-12
-5.28051e-11
-2.41913e-09
-9.46335e-08
-2.84379e-07
-3.20904e-07
-3.46447e-07
-3.61853e-07
-3.68307e-07
-3.67743e-07
-3.61872e-07
-3.51987e-07
-3.39015e-07
-3.23618e-07
-3.06264e-07
-2.87296e-07
-2.66968e-07
-2.45476e-07
-2.22977e-07
-1.99606e-07
-1.75483e-07
-1.50728e-07
-1.25463e-07
-9.98216e-08
-7.39571e-08
-4.80467e-08
-2.22846e-08
)
;

boundaryField
{
    bc0
    {
        type            calculated;
        value           uniform 0;
    }
    bc1
    {
        type            calculated;
        value           uniform 0;
    }
    bc2
    {
        type            calculated;
        value           uniform 2.31482e-06;
    }
    bc3
    {
        type            calculated;
        value           uniform 0;
    }
    top
    {
        type            calculated;
        value           uniform 0;
    }
    bottom
    {
        type            calculated;
        value           uniform 0;
    }
}


// ************************************************************************* //
