/*--------------------------------*- C++ -*----------------------------------*\
  =========                 |
  \\      /  F ield         | OpenFOAM: The Open Source CFD Toolbox
   \\    /   O peration     | Website:  https://openfoam.org
    \\  /    A nd           | Version:  6
     \\/     M anipulation  |
\*---------------------------------------------------------------------------*/
FoamFile
{
    version     2.0;
    format      ascii;
    class       volVectorField;
    location    "345600";
    object      Uw;
}
// * * * * * * * * * * * * * * * * * * * * * * * * * * * * * * * * * * * * * //

dimensions      [0 1 -1 0 0 0 0];

internalField   nonuniform List<vector> 
184
(
(0 -1.44684e-06 0)
(0 -2.89535e-07 0)
(0 -2.10193e-10 0)
(0 -2.06183e-10 0)
(0 -2.06355e-10 0)
(0 -2.06356e-10 0)
(0 -2.06162e-10 0)
(0 -2.0576e-10 0)
(0 -2.05139e-10 0)
(0 -2.04289e-10 0)
(0 -2.03193e-10 0)
(0 -2.01826e-10 0)
(0 -2.00156e-10 0)
(0 -1.98141e-10 0)
(0 -1.95736e-10 0)
(0 -1.92889e-10 0)
(0 -1.89544e-10 0)
(0 -1.85648e-10 0)
(0 -1.81148e-10 0)
(0 -1.75996e-10 0)
(0 -1.70154e-10 0)
(0 -1.63596e-10 0)
(0 -1.56309e-10 0)
(0 -1.48303e-10 0)
(0 -1.39608e-10 0)
(0 -1.30279e-10 0)
(0 -1.20397e-10 0)
(0 -1.10069e-10 0)
(0 -9.94298e-11 0)
(0 -8.8632e-11 0)
(0 -7.78469e-11 0)
(0 -6.7255e-11 0)
(0 -5.70381e-11 0)
(0 -4.73698e-11 0)
(0 -3.84059e-11 0)
(0 -3.02752e-11 0)
(0 -2.30726e-11 0)
(0 -1.68531e-11 0)
(0 -1.16307e-11 0)
(0 -7.37862e-12 0)
(0 -4.03342e-12 0)
(0 -1.51759e-12 0)
(0 3.15568e-13 0)
(0 1.60475e-12 0)
(0 2.436e-12 0)
(0 2.91586e-12 0)
(0 3.13494e-12 0)
(0 3.16893e-12 0)
(0 3.08037e-12 0)
(0 2.91801e-12 0)
(0 2.71767e-12 0)
(0 2.50397e-12 0)
(0 2.29255e-12 0)
(0 2.09243e-12 0)
(0 1.90794e-12 0)
(0 1.74052e-12 0)
(0 1.58984e-12 0)
(0 1.45474e-12 0)
(0 1.33369e-12 0)
(0 1.22511e-12 0)
(0 1.12754e-12 0)
(0 1.03963e-12 0)
(0 9.60243e-13 0)
(0 8.88371e-13 0)
(0 8.23153e-13 0)
(0 7.63842e-13 0)
(0 7.09792e-13 0)
(0 6.60443e-13 0)
(0 6.15303e-13 0)
(0 5.73942e-13 0)
(0 5.35983e-13 0)
(0 5.01092e-13 0)
(0 4.68975e-13 0)
(0 4.39368e-13 0)
(0 4.1204e-13 0)
(0 3.86782e-13 0)
(0 3.63407e-13 0)
(0 3.41748e-13 0)
(0 3.2165e-13 0)
(0 3.02966e-13 0)
(0 2.85545e-13 0)
(0 2.69219e-13 0)
(0 2.53773e-13 0)
(0 2.3892e-13 0)
(0 2.24298e-13 0)
(0 2.09528e-13 0)
(0 1.94373e-13 0)
(0 1.79002e-13 0)
(0 1.64198e-13 0)
(0 1.51259e-13 0)
(0 1.41444e-13 0)
(0 1.35209e-13 0)
(0 1.31824e-13 0)
(0 1.29771e-13 0)
(0 1.27573e-13 0)
(0 1.24393e-13 0)
(0 1.20033e-13 0)
(0 1.14537e-13 0)
(0 1.07749e-13 0)
(0 9.91044e-14 0)
(0 8.7785e-14 0)
(0 7.33201e-14 0)
(0 5.63796e-14 0)
(0 3.90837e-14 0)
(0 2.42658e-14 0)
(0 1.42554e-14 0)
(0 1.05833e-14 0)
(0 1.51606e-14 0)
(0 3.17539e-14 0)
(0 6.52751e-14 0)
(0 1.16467e-13 0)
(0 1.7361e-13 0)
(0 2.11402e-13 0)
(0 2.07257e-13 0)
(0 1.62785e-13 0)
(0 1.02899e-13 0)
(0 5.29548e-14 0)
(0 2.2518e-14 0)
(0 8.03506e-15 0)
(0 2.4413e-15 0)
(0 6.39943e-16 0)
(0 1.46536e-16 0)
(0 3.04125e-17 0)
(0 1.04932e-17 0)
(0 2.88389e-17 0)
(0 1.37058e-16 0)
(0 6.00372e-16 0)
(0 2.3189e-15 0)
(0 7.72665e-15 0)
(0 2.16327e-14 0)
(0 4.92565e-14 0)
(0 8.77448e-14 0)
(0 1.17528e-13 0)
(0 1.1536e-13 0)
(0 8.26324e-14 0)
(0 4.39249e-14 0)
(0 1.78701e-14 0)
(0 5.74871e-15 0)
(0 1.50528e-15 0)
(0 3.28658e-16 0)
(0 6.10242e-17 0)
(0 9.79245e-18 0)
(0 1.37898e-18 0)
(0 1.98547e-19 0)
(0 2.51365e-19 0)
(0 1.80414e-18 0)
(0 1.26019e-17 0)
(0 7.81861e-17 0)
(0 4.21961e-16 0)
(0 1.93059e-15 0)
(0 7.23776e-15 0)
(0 2.12402e-14 0)
(0 4.59237e-14 0)
(0 6.82077e-14 0)
(0 6.70168e-14 0)
(0 4.22887e-14 0)
(0 -7.00095e-13 0)
(0 -2.71158e-11 0)
(0 -1.23597e-09 0)
(0 -4.85263e-08 0)
(0 -1.89506e-07 0)
(0 -3.02641e-07 0)
(0 -3.33676e-07 0)
(0 -3.5415e-07 0)
(0 -3.6508e-07 0)
(0 -3.68025e-07 0)
(0 -3.64808e-07 0)
(0 -3.5693e-07 0)
(0 -3.45501e-07 0)
(0 -3.31317e-07 0)
(0 -3.14941e-07 0)
(0 -2.9678e-07 0)
(0 -2.77132e-07 0)
(0 -2.56222e-07 0)
(0 -2.34227e-07 0)
(0 -2.11291e-07 0)
(0 -1.87545e-07 0)
(0 -1.63106e-07 0)
(0 -1.38096e-07 0)
(0 -1.12642e-07 0)
(0 -8.68894e-08 0)
(0 -6.10019e-08 0)
(0 -3.51656e-08 0)
(0 -1.11423e-08 0)
)
;

boundaryField
{
    bc0
    {
        type            zeroGradient;
    }
    bc1
    {
        type            zeroGradient;
    }
    bc2
    {
        type            zeroGradient;
    }
    bc3
    {
        type            zeroGradient;
    }
    top
    {
        type            zeroGradient;
    }
    bottom
    {
        type            zeroGradient;
    }
}


// ************************************************************************* //
