/*--------------------------------*- C++ -*----------------------------------*\
  =========                 |
  \\      /  F ield         | OpenFOAM: The Open Source CFD Toolbox
   \\    /   O peration     | Website:  https://openfoam.org
    \\  /    A nd           | Version:  6
     \\/     M anipulation  |
\*---------------------------------------------------------------------------*/
FoamFile
{
    version     2.0;
    format      ascii;
    class       volScalarField;
    location    "4320000";
    object      Cw;
}
// * * * * * * * * * * * * * * * * * * * * * * * * * * * * * * * * * * * * * //

dimensions      [1 -3 0 0 0 0 0];

internalField   nonuniform List<scalar> 
11830
(
0
5.26766e-100
0
2.64439e-08
1.07458e-133
7.36542e-133
2.35761e-130
1.37632e-128
3.67606e-128
1.96088e-125
0
0
3.97883e-123
0
0
1.27682e-119
1.18444e-116
2.92385e-116
2.83534e-114
1.83643e-114
7.45074e-116
4.04267e-113
1.07842e-113
0
0
3.20124e-106
3.26491e-105
5.68945e-106
0
0
2.49386e-102
2.28225e-100
5.01456e-100
0
9.74548e-100
0
1.54399e-97
0
0
0
0
9.48226e-93
3.36803e-92
0
2.16074e-92
0
2.36574e-89
2.34724e-89
0
0
1.20758e-87
8.10515e-88
0
0
4.08903e-87
1.73675e-87
1.05607e-88
9.95439e-89
1.60742e-86
8.07245e-87
7.41369e-90
0
4.88277e-87
1.69843e-86
7.65162e-87
1.33081e-87
0
0
5.25589e-87
9.55845e-87
3.37558e-87
6.56341e-88
1.1955e-87
0
0
0
0
2.23712e-82
3.09362e-82
3.33302e-82
1.62398e-82
7.42559e-83
2.62904e-83
8.85305e-84
2.57395e-84
7.65477e-85
1.73043e-85
3.53561e-86
8.98073e-87
1.58928e-87
4.03402e-88
4.92858e-89
6.12025e-90
9.74491e-91
1.59039e-91
3.144e-92
2.74756e-93
5.23578e-94
3.98885e-95
6.26201e-96
6.09506e-97
6.12228e-98
6.87301e-99
2.18668e-99
5.56142e-99
2.41434e-98
8.97853e-98
3.31415e-97
1.17213e-96
4.02404e-96
1.34151e-95
4.26636e-95
1.3004e-94
3.70144e-94
9.95356e-94
2.57777e-93
6.31871e-93
1.46028e-92
3.13808e-92
6.45796e-92
1.22577e-91
2.10614e-91
3.20189e-91
4.15359e-91
4.32929e-91
3.23026e-91
2.34055e-91
2.92795e-91
0
0
0
0
0
0
0
7.58148e-101
5.05255e-100
9.22869e-100
9.44093e-100
4.2337e-100
0
0
0
0
0
0
0
1.87853e-109
1.88873e-108
3.41642e-108
1.57454e-108
0
0
0
0
5.26804e-112
1.53744e-111
6.22322e-112
0
0
0
0
0
6.47233e-116
9.5996e-116
0
0
0
2.32615e-119
3.98531e-118
4.54624e-118
0
0
1.35252e-120
4.96175e-120
1.25195e-120
0
2.01815e-124
0
5.03966e-124
5.1527e-124
0
0
0
0
7.65044e-128
3.8387e-128
0
0
0
1.52652e-131
1.96072e-131
1.44244e-133
0
5.72012e-137
0
5.90297e-137
1.36967e-136
7.5605e-137
1.27748e-138
0
0
4.16358e-141
0
1.89481e-137
2.22865e-136
5.79622e-136
3.40916e-135
0
0
1.48191e-129
1.82557e-127
7.86006e-126
1.20749e-125
0
4.63857e-122
2.74011e-118
1.44308e-116
1.24921e-115
2.06593e-114
5.37752e-114
0
2.07233e-109
3.35718e-106
1.95787e-104
1.27374e-102
4.15485e-101
6.56493e-100
5.68594e-99
1.67502e-97
5.10143e-97
0
0
0
5.66537e-91
3.43243e-89
1.56597e-87
0
6.42972e-82
5.42438e-81
4.42168e-79
1.44135e-76
2.39008e-75
2.57606e-74
5.56143e-74
0
0
7.28077e-69
0
0
2.34366e-64
3.15029e-62
3.13514e-61
7.34457e-60
1.24496e-58
1.55436e-56
0
1.52137e-51
0
0
0
0
2.13026e-43
1.63362e-42
7.49894e-42
1.55648e-41
2.41355e-39
0
0
0
1.87834e-32
3.3641e-31
1.03334e-30
3.71269e-30
5.34574e-30
0
4.27296e-28
0
0
0
2.5463e-19
2.1154e-18
8.75399e-18
8.66129e-17
6.78483e-17
0
1.64359e-14
1.58323e-13
9.35987e-11
0
1.16746e-08
8.34185e-08
2.65412e-07
4.58178e-07
5.74933e-07
7.36401e-07
9.64336e-07
6.39422e-07
3.2355e-07
1.52158e-07
5.82696e-08
7.32054e-08
2.45775e-07
2.55029e-07
5.92709e-07
2.22809e-07
1.91097e-07
4.89625e-08
3.80764e-10
0
0
0
0
1.7531e-18
2.51955e-19
0
3.57443e-22
0
3.05294e-23
5.44345e-23
3.26176e-23
8.85788e-24
6.63873e-25
0
1.02036e-27
6.74682e-30
1.16533e-32
1.11661e-31
6.14099e-34
0
0
0
1.3703e-36
0
0
0
4.99278e-42
1.38524e-43
3.03394e-44
5.3745e-48
3.0002e-50
0
0
7.60635e-53
4.15769e-53
1.31562e-53
2.34897e-54
2.8559e-55
1.59535e-56
1.64276e-58
0
0
0
0
3.76725e-66
6.11842e-68
1.24226e-68
3.72057e-70
0
7.19226e-74
1.08594e-74
0
3.65584e-78
8.5208e-80
4.10232e-82
5.25059e-85
2.149e-86
6.29065e-90
4.41032e-91
4.33534e-92
4.84698e-93
0
5.2001e-97
8.43226e-99
6.97303e-100
7.70877e-101
1.1702e-101
2.84269e-102
1.75758e-103
7.23993e-105
1.03022e-106
0
0
0
0
0
3.19252e-115
3.1129e-117
2.03557e-119
4.19032e-121
2.85998e-122
1.12093e-124
2.25838e-127
2.14187e-127
1.47807e-128
3.13891e-130
6.62262e-132
8.95859e-134
3.78299e-135
0
0
2.22359e-85
0
0
0
0
0
5.5827e-74
7.04541e-85
0
0
4.39949e-46
3.41853e-99
0
4.68606e-96
0
1.50917e-116
0
1.76901e-86
2.48881e-88
1.341e-98
0
0
1.12251e-100
2.07704e-80
0
1.26781e-97
0
0
1.49213e-89
6.59123e-23
0
3.73517e-107
3.71335e-17
9.34785e-83
0
6.14195e-91
1.20719e-116
0
1.43512e-113
0
0
2.86477e-113
7.52751e-86
3.43637e-125
0
6.19961e-93
0
0
4.53466e-85
0
6.25391e-110
0
6.86386e-55
0
4.14624e-89
3.43895e-81
5.66935e-07
3.21109e-130
0
5.29129e-115
2.24537e-85
4.09834e-91
1.24694e-42
8.07826e-108
0
3.89296e-98
0
0
1.83325e-92
1.48546e-06
2.66853e-126
0
4.79968e-95
5.38772e-07
3.36138e-124
0
0
3.17556e-89
4.92084e-102
0
0
3.27127e-81
2.30213e-119
1.20778e-122
0
7.43142e-103
0
1.81914e-30
5.55422e-95
0
2.4714e-104
4.69818e-136
4.29118e-07
2.43568e-95
2.48651e-131
5.72477e-136
9.28668e-97
4.59522e-07
9.87299e-129
4.48741e-92
0
0
0
5.19082e-86
4.12342e-68
1.71068e-63
8.44129e-107
0
1.33648e-55
0
0
0
3.90136e-112
0
0
0
0
5.24868e-14
0
0
0
1.3e-06
0
0
3.41694e-08
0
1.12705e-90
0
0
6.09735e-94
1.66555e-87
0
2.00727e-109
0
3.62855e-86
0
1.69077e-84
5.78626e-42
0
4.03891e-85
2.40927e-114
0
0
1.63243e-23
2.43595e-110
2.42634e-94
7.79267e-88
0
0
0
0
0
0
9.67163e-31
0
3.86564e-97
0
3.50634e-114
2.71111e-90
4.13675e-98
0
1.01241e-75
0
0
8.6407e-08
2.5839e-97
3.86371e-133
0
1.31619e-58
4.577e-56
8.58557e-58
2.39951e-55
4.82685e-55
0
2.06472e-51
0
0
0
0
1.72111e-44
4.1408e-43
1.20544e-44
2.62309e-43
1.16727e-42
0
0
0
6.92169e-39
0
0
0
0
0
0
7.57809e-30
7.80905e-28
1.08329e-27
5.96472e-29
1.0014e-27
9.8651e-29
6.42716e-28
1.00188e-28
2.85184e-28
6.57974e-29
7.91934e-29
2.82925e-29
1.01302e-29
7.45876e-30
0
1.36584e-30
0
4.87843e-32
0
0
0
0
2.43056e-29
1.28977e-27
6.96445e-28
3.67053e-29
2.48473e-28
2.24797e-29
6.96318e-29
2.5633e-28
3.76392e-29
1.5142e-29
4.07507e-30
0
0
0
0
2.51025e-27
2.69321e-27
4.18983e-26
1.58171e-26
1.52692e-27
4.78727e-27
6.24669e-28
1.15525e-27
4.20141e-27
5.54267e-28
2.22638e-28
1.40661e-29
9.63033e-30
3.8801e-29
1.01208e-31
4.46237e-29
0
0
0
0
0
0
5.36961e-22
8.23135e-21
0
6.27033e-21
1.05448e-19
3.5748e-20
2.8284e-21
1.05626e-20
1.00434e-21
2.80294e-21
2.16602e-20
4.8713e-21
6.8055e-22
1.0272e-21
6.1376e-21
1.16611e-21
2.04418e-22
2.11794e-22
1.06314e-21
1.78146e-22
7.80468e-22
3.68432e-23
2.85565e-23
6.13707e-24
4.3922e-24
9.76856e-25
6.49648e-25
1.49171e-25
9.25915e-26
2.19058e-26
1.27385e-26
3.0997e-27
1.27319e-27
1.69429e-27
4.234e-28
2.18156e-28
7.84683e-28
5.59167e-29
9.75405e-29
1.3234e-29
2.07203e-29
2.89424e-30
9.56943e-29
3.09633e-28
4.05503e-30
3.58928e-29
1.04349e-28
5.84749e-31
7.28992e-31
1.15297e-29
3.00227e-29
1.09012e-31
1.20865e-31
3.16858e-30
7.34998e-30
1.8685e-32
7.42029e-31
1.52034e-30
1.85572e-32
2.96825e-33
1.46937e-31
2.62463e-31
2.61101e-33
4.35996e-34
2.42804e-32
3.70344e-32
3.33828e-34
3.27429e-33
4.11699e-33
5.86441e-35
3.83009e-35
3.46302e-34
3.34802e-34
7.15559e-36
2.6506e-35
1.6634e-35
3.86861e-36
7.81213e-37
1.19539e-36
2.22651e-37
4.07534e-36
0
0
0
0
0
0
0
0
0
0
3.89575e-49
0
1.68634e-46
1.60969e-45
5.60251e-46
6.04112e-45
8.93406e-46
1.03586e-44
7.58529e-46
9.42616e-45
2.4712e-46
3.51363e-45
0
3.32999e-37
0
7.46741e-38
1.46533e-37
0
0
0
1.52239e-38
2.57938e-38
2.2947e-38
0
0
2.87079e-39
4.29318e-39
5.06603e-40
6.79538e-40
0
0
8.43617e-41
1.02797e-40
0
0
1.33413e-41
1.49085e-41
2.01371e-42
2.08407e-42
0
8.24178e-61
1.59088e-42
2.9123e-43
2.81181e-43
4.05267e-44
3.6603e-44
7.8996e-62
2.7356e-61
3.33353e-60
3.51323e-61
4.62502e-60
1.61446e-61
5.44499e-45
4.59508e-45
2.5937e-62
2.35314e-60
7.0668e-46
5.57983e-46
0
8.84551e-47
6.56579e-47
0
1.07031e-47
7.49827e-48
0
1.3121e-47
1.25468e-48
8.3218e-49
1.00544e-38
0
1.42726e-49
8.98577e-50
4.83532e-49
4.97794e-50
2.47988e-49
2.44239e-50
1.12869e-49
1.06637e-50
4.5768e-50
4.15743e-51
1.65803e-50
9.85471e-52
1.45082e-51
5.37598e-51
7.15586e-38
1.80141e-39
0
0
0
0
0
0
1.19143e-47
1.91328e-50
3.05017e-50
9.34041e-49
1.23844e-47
2.44719e-48
1.50312e-47
1.38209e-48
6.04622e-48
2.58233e-49
5.40543e-49
0
0
8.0219e-50
0
0
3.20572e-52
7.91114e-52
1.17966e-52
7.04311e-52
4.53881e-52
1.56162e-51
0
7.16711e-53
4.19802e-52
7.45897e-54
2.50628e-53
3.8711e-53
0
1.27384e-52
4.06443e-52
4.79192e-44
6.00672e-66
1.05422e-66
0
0
7.12304e-66
6.1446e-67
3.20701e-53
9.47126e-53
0
2.04184e-56
1.86942e-66
6.96408e-33
7.06621e-67
5.41922e-68
1.31513e-56
1.27223e-55
7.23577e-54
1.9727e-53
2.48504e-54
1.07053e-68
6.34893e-70
1.31788e-56
5.05431e-56
2.20749e-57
1.72134e-57
2.69992e-58
1.09983e-55
0
0
0
0
0
0
0
1.63364e-60
1.69116e-59
9.86698e-59
7.84054e-59
4.26299e-60
4.89568e-60
2.30065e-58
0
0
0
0
0
0
5.43166e-55
1.89168e-55
0
8.12322e-66
0
0
7.53375e-67
4.00761e-56
1.41509e-56
0
0
0
0
0
0
0
2.90719e-57
1.04058e-57
2.17693e-80
1.47651e-81
0
9.80514e-83
0
9.12955e-83
0
0
1.40085e-51
2.07406e-58
7.52398e-59
6.41562e-84
0
0
6.2934e-43
0
7.97544e-42
0
9.74034e-41
6.4e-42
1.14383e-39
1.47789e-40
1.29281e-38
2.43027e-39
1.40651e-37
3.43112e-38
1.4724e-36
4.40195e-37
1.48296e-35
5.25827e-36
1.43563e-34
5.92068e-35
1.33281e-33
6.32826e-34
1.18812e-32
6.42528e-33
1.01135e-31
6.18074e-32
8.21711e-31
5.62965e-31
6.36926e-30
4.86226e-30
4.70996e-29
1.11675e-31
3.98369e-29
3.31766e-28
3.09102e-28
2.21457e-27
2.25947e-27
1.37458e-26
1.54839e-26
7.63694e-26
9.95393e-26
3.89742e-25
5.90612e-25
1.82063e-24
4.48457e-25
9.50719e-25
0
0
0
0
0
0
0
0
0
0
0
0
8.72923e-27
0
0
0
0
0
0
1.82818e-07
2.16223e-06
1.32928e-05
6.66543e-05
1.57302e-05
0.000305154
0.00051174
0.00196097
0.00127375
0.0068871
0.00483141
0.0220538
0.0165901
0.0640512
0.0021274
0.051412
0.168485
0.143188
0.399826
0.367364
0.767422
0.853495
1.44337
1.02848
1.63745
2.45042
3.02743e-29
2.82185
3.77197
8.94717e-69
1.00075e-69
9.51988e-71
4.74645e-71
4.36482
4.17373e-85
1.2865e-87
1.45562e-59
3.70696e-59
5.35093e-60
1.05615e-71
5.286
6.08218
4.00862e-71
0
2.84712e-35
1.76764e-44
0.0285215
2.52644e-60
5.91803e-60
2.72152e-86
3.00042e-88
2.61895e-52
5.01689e-53
0
0
6.71793
7.67587
6.17205
3.41068e-49
1.8208e-42
3.91792e-61
8.39252e-61
1.79538e-87
1.13183e-88
7.80313
6.7557e-52
1.18472e-52
1.28126e-33
8.84321
3.20754e-76
3.77116e-79
8.93879
5.04641
5.3972e-62
1.04886e-61
1.21331e-88
9.93345e-89
1.35691e-89
1.61842e-51
2.58292e-52
1.57767e-50
4.83002
0
1.85126e-37
0
0
9.33722
9.41876
5.39835e-78
3.06268e-80
9.15258e-80
1.85802e-81
3.58075e-51
5.16115e-52
2.03573e-80
6.55009e-63
1.14191e-62
3.41875e-63
6.65735e-90
0
1.29459e-47
7.31184e-32
3.40653e-80
5.71199e-82
9.26518
9.40607
0
7.26497e-51
9.36068e-52
6.91886e-64
1.06415e-63
0
0
0
0
1.33908e-50
1.52046e-51
8.23487
8.49324
7.88807
7.10547
0
0
6.24456e-65
8.24976e-65
2.2137e-50
2.16887e-51
1.88294e-49
1.10804e-31
3.82143e-30
0
6.6063
5.44833
2.87667e-83
5.0941e-84
5.48793
0
3.0524e-96
0
4.67176e-66
5.05283e-66
3.2216e-50
2.63352e-51
1.53571e-29
0
1.56404e-32
4.97399
0
0
0
0
0
0
0
0
3.67002e-81
1.99662e-82
9.52329e-81
5.73396e-82
6.98051e-81
4.47249e-82
8.31932e-82
7.5636e-83
0
0
0
0
0
0
5.96163e-78
3.2178e-79
1.31512e-77
7.74261e-79
1.10099e-77
6.87601e-79
3.98285e-78
2.68057e-79
0
0
1.75748e-80
0
0
2.80987e-83
1.12793e-81
1.0537e-83
0
7.09426e-83
2.13077e-84
0
4.38692e-84
2.43493e-85
0
0
0
0
0
0
2.29966e-28
2.56411e-59
1.84787e-60
8.23238e-60
6.01234e-61
2.49611e-60
1.84761e-61
7.16217e-61
5.37389e-62
1.94822e-61
1.48205e-62
5.03158e-62
3.88162e-63
1.23542e-62
9.66769e-64
2.88708e-63
2.29243e-64
6.42768e-64
5.18044e-65
7.43134e-65
1.36443e-64
1.11661e-65
2.7634e-65
2.29728e-66
5.34274e-66
6.1977e-65
4.51389e-67
1.87339e-67
1.12488e-65
1.25581e-64
3.73939e-68
1.49924e-68
2.13645e-65
2.28983e-64
3.64358e-65
3.73798e-64
3.03889e-69
1.17794e-69
2.4237e-70
9.08964e-71
5.54632e-65
5.4257e-64
1.89787e-71
6.89126e-72
7.4733e-65
6.93332e-64
3.90285
2.53053
1.79899e-84
2.77931e-83
0
2.89811e-85
0
8.79388e-65
7.6834e-64
3.05936
6.76007e-87
7.82765e-66
1.45965e-72
5.13487e-73
2.28796e-72
1.65366e-73
6.95431e-73
3.76165e-74
4.00827e-50
2.57386e-51
1.60416e-52
0
2.74029e-67
2.18666e-67
2.60564e-67
0
0
4.88065e-74
1.93681e-73
0
3.79267e-72
2.8725
8.96141e-65
7.35874e-64
0
0
5.32808e-84
4.04932e-50
1.79176e-51
0
0
1.61364
0.746981
1.36882
0
7.80614e-65
5.93247e-64
0
0
1.11324e-68
4.70369e-69
1.03243e-67
0
0
0
0
0
0
0
0
1.32111e-74
4.94479e-74
2.97885e-50
6.24707e-49
5.97456e-52
0
1.85608e-49
0
0
0.411936
0.10977
5.5981e-65
3.85022e-64
4.30817e-63
2.49244e-63
1.85563e-64
1.00603e-63
1.50166e-62
4.80359e-63
8.27961e-62
1.90128e-62
4.85873e-64
1.2617e-64
5.4035e-62
0
5.46479e-62
0
0
0
0
1.04609e-66
0
2.9695e-67
1.45879e-64
0
7.94988e-66
1.36192e-68
3.26506e-68
1.69192e-66
3.14468e-67
2.68751e-65
3.52135e-66
2.22852e-65
2.50592e-64
9.12334e-65
2.99829e-66
0
0
0
1.55201e-63
2.17567e-68
4.43305e-67
4.78844e-68
2.37092e-67
3.58433e-66
5.74818e-67
2.7592e-69
0
1.66298e-65
9.25764e-69
0
5.84939e-70
5.28625e-69
1.35589
0
4.94781e-70
3.68911e-69
1.14534e-50
0
0
7.72256e-66
0.485572
0
0
0
3.2809e-75
1.1574e-74
0
2.43412e-70
5.12191e-70
1.55726e-68
5.77112e-70
4.73518e-68
1.75112e-70
0
0
1.37633e-67
0
0
1.60698e-92
1.36628e-94
0
0
0
0
0
1.12345e-71
2.43711e-72
1.08048e-76
0
0
3.74087e-63
0.0455562
6.73512e-05
0.205478
7.17875e-87
9.08573e-87
0
0
7.31743e-73
1.47565e-71
6.1742e-71
0
0
0.510745
0
0
4.43661e-95
2.77993e-96
4.30658e-95
2.12394e-99
1.71048e-96
0
0
0
0
0
0
1.75098e-100
1.44557e-99
1.52941e-100
1.45632e-99
5.52414e-102
1.30356e-101
1.82045e-100
1.00203e-98
2.89607e-99
6.41541e-98
0
3.0294e-98
4.54616e-97
2.83889e-97
3.6694e-96
2.82038e-96
3.25075e-95
1.17669
0
0
7.47547e-76
2.48294e-75
2.14433e-76
0
0
1.5502e-61
0.13008
0.0954071
0
0
8.35577e-61
7.25047e-60
1.5325e-60
1.50422e-59
8.56386e-61
9.67936e-60
0
0
0
0
0
0
0
0
0
0
0
0
0
0
0
0
0
0
0
0
3.30536e-55
0
2.2428e-53
0
3.63918e-52
2.9952e-54
0
4.02407e-51
1.46074e-50
8.06494e-50
3.6088e-50
3.90716e-49
0
0
2.22097e-49
5.14974e-49
1.70152e-48
2.55505e-49
6.54628e-48
5.00168e-49
1.98821e-47
0
0
0
0
3.75414e-47
0
0
0
0.477661
0.915009
0
0
0
0
0
1.19129e-72
5.46897e-72
1.12034e-70
7.23058e-72
3.92329e-70
0
0
0
0
9.12996e-75
0
9.18261e-74
6.87938e-75
2.08244e-74
4.83886e-73
2.00922e-74
0
0
0
0
0
8.26838e-80
0
0
2.95816e-95
2.6393e-94
0
0
2.77113e-37
2.1389e-36
7.92234e-36
3.30423e-35
1.31558e-35
1.19214e-34
9.2393e-35
2.39325e-34
3.84277e-34
4.23711e-34
0
1.32804e-35
2.52888e-34
0
0
0
0
0
0
0
0
0
0
0
0
2.71531e-21
0
6.3432e-20
0
1.57483e-84
8.57769e-81
1.34473e-62
4.9167e-101
0
0
0
0
0
0
0
1.67345e-10
0
0
2.61076e-12
0
8.39304e-14
0
0
5.52856e-20
7.66943e-17
1.41258e-16
2.43042e-16
1.36236e-16
2.50596e-16
7.46373e-17
1.39279e-16
1.67442e-17
3.25178e-17
2.59499e-16
4.91121e-17
5.0611e-16
1.34678e-16
6.41618e-16
6.50479e-20
1.87149e-16
6.70691e-16
2.40459e-16
0
0
3.8044e-15
2.16311e-16
4.24755e-15
6.51774e-16
2.34229e-15
6.78738e-16
9.91903e-16
4.25511e-16
2.05455e-16
1.60909e-16
5.45066e-17
5.22322e-17
1.78172e-18
0
2.44526e-15
1.78561e-16
9.72165e-16
5.05025e-18
1.78693e-16
0
0
0
6.19715e-100
0
0
0
0
0
8.89531e-17
0
0
0
0
0
0
2.25869e-09
2.38427e-09
4.20409e-11
1.51845e-09
1.50906e-08
6.27654e-09
7.62369e-10
2.32969e-09
1.33213e-08
4.14669e-09
7.8392e-10
1.19665e-09
5.07037e-09
1.30649e-09
3.2238e-10
3.18789e-10
1.10201e-09
2.44618e-10
7.3694e-11
5.13396e-11
1.42545e-10
2.74318e-11
1.02196e-11
5.02859e-12
1.13588e-11
1.93098e-12
8.80176e-13
3.14414e-13
1.47427e-13
4.91263e-14
2.21312e-47
2.69412e-94
1.34508e-93
0.0107259
0.000754179
3.45002e-100
6.39497e-82
1.92444e-81
0.387075
0.647919
1.56212e-76
4.8786e-76
7.84409e-75
1.44644e-75
2.35249e-74
4.062e-75
6.68268e-74
1.07761e-74
0
0
0
3.10283e-102
2.48615e-102
3.41284e-74
0
2.86663e-19
3.63694e-12
2.67489e-17
3.97296e-18
6.91418e-81
3.58947e-20
0
0
1.7934e-73
2.69213e-74
2.36774e-14
7.37819e-15
0
7.0435e-17
1.60895e-100
1.12119e-82
1.64652e-82
0
0
6.1013e-72
1.83978e-69
1.80563e-70
1.52086e-70
1.24761e-71
0
0
0
0
0
0
0
0
1.03945e-76
1.94121e-93
0
0
0
1.336e-83
0
1.53642e-81
0
7.93185e-80
0
3.00045e-78
1.07814e-79
7.46691e-77
7.42306e-77
4.44394e-76
1.07994e-75
1.02774e-76
2.95568e-75
2.76189e-75
1.01419e-74
3.89873e-73
2.30167e-72
0
1.05516e-70
0
0
0
0
0
0
2.83362e-61
9.60116e-62
4.84839e-60
2.46877e-60
4.79544e-60
7.0517e-60
1.72409e-61
0
0
2.05019e-58
0
0
9.83936e-55
0
5.49055e-52
0
0
0
0
1.32818e-46
4.47157e-45
1.8529e-45
5.56862e-45
1.30387e-46
4.97685e-46
2.01965e-45
0
0
5.77628e-47
0
0
0
0
6.9504e-44
6.53161e-42
3.355e-42
1.48045e-43
1.08553e-42
7.2432e-42
9.19019e-43
2.34534e-43
0
0
0
0
0
6.82575e-41
5.92326e-41
9.67569e-40
2.54307e-40
0
1.70209e-39
2.26748e-40
0
3.42645e-23
8.04533e-19
2.429e-18
4.01531e-18
1.75985e-18
4.6125e-103
0
0
2.1572e-76
0.281573
0.421018
0
0
6.00759e-75
6.58392e-80
0
3.97104e-21
5.03422e-39
2.59057e-24
0
0
0
0
0
1.98048e-25
9.33298e-39
1.27843e-14
1.799e-15
1.0668e-15
2.44119e-16
0
1.67602e-40
4.87213e-41
1.33987e-41
0
0
0
4.70641e-39
0
0
3.63485e-15
7.32082e-81
0
0
9.28098e-84
5.05401e-47
2.30825e-50
2.61605e-51
5.4704e-45
3.3343e-16
4.24136e-17
3.19845e-17
5.20928e-18
4.05082e-18
6.18789e-19
4.96401e-19
7.11571e-20
5.89162e-20
7.92855e-21
6.77885e-21
8.56547e-22
0
0
1.71592e-19
5.31627e-18
2.99143e-37
1.28706e-37
6.38614e-76
2.99144e-77
1.60449e-103
0
0
0
4.91476e-85
9.04268e-85
0.186507
0.253169
1.16099e-76
5.44196e-95
0
4.53284e-73
6.30971e-74
7.56766e-22
2.46684e-17
2.43894e-77
0
0
4.98445e-83
6.02122e-14
0
0
8.59645e-84
2.06307e-85
0
0
0
0
8.97712e-23
3.5158e-51
4.09337e-52
1.02664e-52
5.12852e-27
3.69066e-27
1.6201e-36
3.93882e-37
4.02739e-38
7.81606e-38
6.3853e-18
3.9195e-18
0
2.21713e-22
0
0
0
8.75632e-94
0
0
1.08616e-104
0.10433
0.113733
0.141966
3.30362e-45
3.38069e-71
2.67087e-85
5.17653e-85
2.95402e-86
2.34784e-86
1.24381e-87
1.86685e-88
7.04354e-90
0
0
0
0
0
0
1.02337e-94
1.02885e-16
2.17281e-50
1.80952e-93
1.81178e-94
4.86367e-20
5.24599e-76
5.44966e-77
0
0
5.68316e-96
1.07505e-72
1.38101e-73
7.89942e-75
1.5852e-74
8.83462e-76
1.61105e-75
4.4115e-17
7.01328e-21
0
0
5.84868e-61
3.27951e-60
4.43133e-37
0
7.80536e-39
1.16532e-38
5.00903e-37
9.18925e-38
2.60281e-18
0.277946
0.146514
0.241644
0.117267
0.152399
0.07231
0
0
3.38739e-93
1.17016e-94
2.35699e-93
0
5.97029e-95
0
0
0
0
3.15143e-19
8.2032e-23
5.02897e-52
6.03409e-53
0
9.78771e-27
1.19197e-26
0
0
2.02175e-18
0
1.40501e-22
2.41898e-22
0.0673328
0.0646974
3.61812e-103
2.77738e-101
4.13563e-77
2.18308e-75
0
0
9.13214e-24
6.97862e-24
3.35147e-78
0
0
1.85658e-61
9.0281e-89
0
2.28137e-82
8.59686e-60
1.10623e-58
5.33064e-36
2.5936e-37
0
4.623e-53
7.00475e-54
5.07229e-54
5.85593e-22
1.1799e-22
1.47909e-44
0
0
7.71722e-106
8.74263e-77
1.43044e-76
0
0
0
0
0
6.63609e-75
0
0
0
9.38083e-60
2.19524e-89
8.26839e-91
2.17838e-59
3.01376e-58
1.18205e-19
9.15285e-40
2.67481e-75
2.09475e-76
7.52675e-72
1.80654e-71
6.75149e-53
0
1.37527e-57
4.0674e-57
4.24899e-58
6.09824e-57
3.24651e-58
4.97335e-57
8.66501e-59
1.56398e-57
0
2.83774e-93
3.10714e-79
7.88546e-55
0
4.30976e-19
3.52423e-20
0
0
0
0
6.52061e-25
2.3795e-25
8.64048e-24
0
1.02843e-36
0
0
0
7.33942e-73
0
0
0
6.35153e-27
0
0
0
4.04728e-30
5.27854e-52
6.96738e-74
5.58503e-75
2.85127e-75
7.26815e-76
6.49912e-77
0
0
5.28011e-88
0
5.4135e-55
2.96799e-19
1.57638
0
6.83613e-23
5.23366e-23
1.53708e-60
0.0263153
0.0212026
0
0
4.50065e-77
0
0
0
9.18544e-75
0
3.98265e-75
2.67954e-76
1.36238e-77
1.42144e-77
2.87293e-76
1.12756e-77
5.34703e-56
0
0
0
1.83346e-15
0
0
0
0
0
0
5.69002e-107
0
1.12247e-104
1.8358e-104
1.61233e-103
0
0
0
0
1.8514e-57
7.13514e-69
0
0
1.26407e-94
0
1.8488e-26
1.23234e-70
2.99359e-70
0
1.61939e-26
5.52657e-27
6.45797e-53
4.69559e-52
0
2.69844e-56
4.71968e-21
0
3.33551e-71
0
0
8.62211e-56
1.15806e-55
1.46238e-23
1.3811e-23
2.37871e-76
5.27725e-78
1.83176e-53
0
0
0
0
0
1.92625e-09
1.24969e-12
0
0
4.94433e-16
0
0
5.29511e-89
3.67586e-83
4.31255e-84
1.3045e-82
0
3.58341e-85
0
2.59714e-86
0
1.37895e-85
7.73601e-87
1.5712e-86
1.27672e-19
0
0
0
5.62634e-56
0
0.00779716
0.00456727
0.0100473
0
0
0
7.54908e-17
9.24478e-17
3.59821e-20
0
5.96394e-78
0
6.53215e-97
1.51085e-19
1.78104e-19
4.75181e-20
9.2007e-21
1.89895e-74
0
0
1.79965e-96
0
8.36183e-88
1.02959e-87
6.92859e-79
7.85208e-100
6.13074e-97
1.0949e-104
1.03575e-104
0
0
0
0
0
0
0
4.27084e-108
1.22601e-76
0
0
0
0
1.34143e-27
1.9029e-26
0
0.0132262
0.00164737
4.47585e-55
0.322901
0
0
0
0
0
7.26034e-62
4.66992e-92
0
6.77704e-30
1.29962e-56
1.60272e-56
1.63017e-103
1.61034e-23
1.5841e-22
4.54302e-60
1.55767e-20
2.01747e-21
1.70701e-22
3.06981e-21
0.000406892
0
5.61607e-05
0
0
1.23239e-77
1.98912e-69
7.59489e-70
4.89087e-69
5.12522e-53
3.39565e-52
0
0
0
0
0
5.47407e-69
1.91131e-34
0
9.19168e-28
2.70051e-29
0
1.22376
0
0
4.41858e-81
6.94943e-35
4.65169e-31
3.32948e-59
9.50892e-67
4.14198e-66
9.09093e-66
6.18752e-65
3.644e-65
4.85137e-64
0
6.77161e-64
0
4.32782e-63
2.70292e-62
2.69987e-62
3.03162e-61
1.04141e-61
1.97602e-60
1.61619e-60
1.68099e-61
0
6.18838e-56
0
1.15909e-99
2.53064e-24
2.87357e-24
2.78788e-25
1.74678e-103
3.13379e-102
4.14763e-16
2.40791e-16
0
0
0
0
0
1.90038e-81
1.49864e-80
0
0
8.60137e-78
4.93041e-75
7.43038e-60
0
0
0
4.01382e-64
7.19991e-63
0
0
0
1.73857e-28
7.38005e-64
3.21708e-63
0
0
4.4616e-87
3.32119e-12
4.12442e-98
1.43874e-96
1.85121e-57
2.01553e-86
7.72686e-88
0
0
1.14229e-17
4.35934e-21
3.80916e-22
0
1.5697e-102
5.67107e-103
5.17671e-16
3.62358e-89
7.70613e-90
0
0
0
1.24573e-111
3.46809e-98
8.75393e-98
1.65089e-96
9.94047e-98
8.77349e-101
1.97448e-96
4.30862e-98
6.28664e-106
0
7.97424e-82
9.06602e-82
0
0
0
2.00932e-63
3.09027e-62
0
5.13166e-11
1.18914e-45
3.27395e-55
3.24833e-56
1.75756e-55
2.41962e-09
6.79697e-70
0
2.38746e-107
2.61649e-106
1.68947e-107
1.45074e-108
0
0
0
0
0
0
7.98245e-114
3.22054e-113
8.79634e-114
8.2232e-113
1.95054e-114
3.42493e-113
0
0
0
0
0
0
2.32267e-118
2.75867e-118
2.59175e-118
1.34587e-117
8.3982e-119
6.8498e-118
5.3479e-117
3.45985e-117
1.0332e-116
0
1.38907e-116
5.06865e-117
7.67222e-115
4.99777e-120
0
5.01619e-116
0
0
0
1.17275e-115
4.63147e-117
0
0
0
0
5.48119e-61
2.6685e-61
5.2981e-60
1.05361e-60
6.89349e-60
5.11069e-59
5.32579e-60
0
0
1.79249e-59
2.08969e-57
6.80542e-58
1.1343e-56
4.16396e-57
5.56359e-56
4.01507e-57
9.46735e-57
0
4.37801e-56
1.89265e-58
0
0
0
1.35042e-56
0
0
0
0
4.05341e-83
2.51487e-28
9.14136e-29
0
4.90355e-30
9.96796e-32
2.99732e-29
0
2.69325e-30
0
7.5728e-107
0
5.00954e-99
0
6.04308e-78
0
1.93484e-61
4.75549e-61
1.19681e-60
7.02245e-61
2.50215e-60
7.34032e-63
3.43079e-63
3.65272e-60
0
2.58716e-16
1.11386e-16
0
8.85101e-29
1.1243e-68
1.43481e-69
1.03817e-49
1.70361e-49
1.19379e-68
4.24284e-69
0
0
0
0
0
7.16111e-54
0
0
0
2.08654e-57
1.0158e-64
0
0
0
2.38999e-36
1.99918e-59
2.49223e-88
3.81164e-99
9.62872e-99
3.94268e-101
0
4.97063e-93
1.67022e-56
3.14687e-57
8.42154e-56
9.25106e-97
0
2.80443e-28
5.06408e-28
1.03857e-28
5.1557e-30
1.28013e-21
1.11041e-21
1.04867e-97
8.62397e-97
1.05716e-21
6.02042e-23
0
0
1.9797e-26
0
1.56806e-104
9.15842e-102
4.46698e-101
1.98636e-100
0
1.1011e-99
0
0
0
1.03106e-88
1.86329e-88
0
0
3.20562e-53
5.13654e-54
1.8708e-52
2.12798e-51
0
1.04244e-59
2.48465e-58
0
1.98577e-14
1.27045
4.85882e-77
4.68239e-78
2.63741e-78
2.4754e-79
1.41318e-79
1.29257e-80
7.48083e-81
0
6.1741e-80
1.54647e-53
7.06333e-82
1.1769e-80
4.78058e-32
1.66085e-87
5.82747e-22
2.07172e-58
2.8378e-40
0
1.73613e-30
2.97283
1.81559e-103
3.98356e-17
1.12236e-17
3.97951e-17
2.80621e-18
0
0
8.05769e-89
0
0
0
2.42564e-60
0
1.41842e-112
1.97639e-112
2.61457e-91
0
0
0
0
0
0
1.9255e-99
0
0
0
0
0
0
3.94041e-103
0
0
1.94168e-79
1.00727e-78
3.89918e-78
0
0
1.46829e-77
6.8352e-76
1.60752e-76
8.97001e-78
1.59189e-77
0
0
0
0
2.79386e-76
2.89603e-76
7.25105e-75
1.2445e-75
1.01827e-74
5.42694e-76
1.35321e-76
0
8.53366e-78
0
0
0
0
0
6.95201e-78
3.66488e-76
9.41571e-77
1.3916e-75
1.81865e-76
1.65548e-77
2.01343e-77
1.18696e-76
2.6193e-78
1.76753e-78
1.23149e-80
8.45048e-79
7.88563e-78
1.37573e-80
1.50096e-77
2.13927e-80
0
0
0
0
0
1.75693e-78
0
1.3512e-72
0
6.01405e-73
1.55873e-71
3.16459e-72
5.07113e-71
8.09415e-72
5.62914e-73
1.20118e-72
1.43916e-71
1.90248e-72
2.00327e-71
2.43047e-72
2.40356e-73
2.84315e-73
2.61779e-72
2.87867e-73
2.44942e-72
2.54227e-73
3.07429e-74
2.56556e-74
3.18604e-75
2.52148e-75
1.99724e-72
3.2087e-76
2.41661e-76
1.77272e-75
1.62437e-76
2.26119e-77
1.45547e-77
9.81985e-77
8.45258e-78
5.36916e-77
4.45074e-78
7.12783e-79
3.61829e-79
2.13322e-78
1.67503e-79
9.33649e-79
7.09209e-80
3.74104e-79
2.75295e-80
5.2938e-81
1.99193e-81
9.81594e-81
6.89282e-82
3.21986e-81
2.19659e-82
9.72822e-82
6.45359e-83
2.70959e-82
1.47528e-83
4.21667e-84
9.75677e-85
2.71408e-85
6.3551e-86
3.88423e-82
1.72121e-86
6.9776e-86
4.07757e-87
1.42988e-86
9.28217e-88
5.89173e-80
1.44403e-80
2.5775e-88
5.93446e-89
3.09314e-87
3.75682e-76
1.97457e-71
1.49434e-71
0
0
2.59804e-104
2.40385e-68
1.83338e-67
2.79706e-69
6.49184e-68
2.15358e-68
0
0
0
6.39258e-63
0
0
0
0
1.38313e-66
2.19457e-67
1.68099e-66
1.36838e-65
8.36869e-66
2.14512e-52
2.02887e-52
0
0
0
7.12114e-24
0
0
0
0
9.31765e-65
4.02684e-67
4.14345e-67
2.49201e-65
0
0
0
0
7.54204e-73
6.40594e-74
1.71689e-76
0
5.28892e-73
2.53538e-74
6.77812e-75
4.96504e-72
0
0
0
0
0
4.48527e-88
2.34807e-87
3.10594e-87
0
0
2.78449e-87
2.86059e-87
3.80291e-88
2.03144e-88
0
0
0
5.65616e-11
1.03664e-95
0
0
4.77025e-27
0
3.27835e-89
3.11462e-29
2.10425e-30
7.68589e-57
3.6167e-56
0
0
0
0
5.22922e-97
5.19611e-102
2.41245e-102
6.99108e-98
1.61509e-86
1.68616e-81
2.92164e-80
1.91223e-79
4.9694e-79
3.01184e-78
8.28782e-78
4.57534e-77
1.35405e-76
6.66161e-76
2.16675e-75
9.21476e-75
0
0
0
0
0
0
0
0
0
0
1.21308e-71
3.89104e-72
1.11785e-70
1.62462e-69
6.91704e-71
2.29092e-68
4.93333e-69
7.54801e-68
3.13009e-67
1.13444e-66
1.25785e-67
1.99377e-66
1.28597e-17
3.12175e-21
2.54599e-21
5.92526e-108
4.99715e-78
0
0
0
0
0
0
0
0
0
0
0
0
0
0
3.75515e-39
0
0
0
1.42677e-42
0
6.89111e-43
0
1.57312e-43
5.60377e-43
7.72528e-44
2.75004e-44
1.00856e-44
4.17745e-45
1.22726e-45
5.76544e-46
1.41557e-46
7.39836e-47
8.82273e-44
1.0345e-46
1.5589e-47
9.02131e-48
1.6356e-48
1.05034e-48
0
1.64097e-49
1.18406e-49
8.10175e-50
2.28692e-49
3.22887e-50
1.36398e-20
0
0
0
0
1.38359e-26
2.04472e-97
1.88138e-96
0
1.98652e-96
0
0
0
0
0
0
0
0
1.00346e-86
0
2.55216e-85
2.03021e-86
8.62619e-85
1.1421e-85
0
0
0
0
0
0
3.46612e-78
0
4.76739e-76
0
1.37371e-74
1.96457e-76
7.08441e-74
2.79635e-75
0
0
0
0
0
2.23851e-70
0
0
0
0
3.22907e-63
1.07662e-63
1.72348e-62
1.20758e-61
0
9.16128e-64
0
3.92678e-60
0
1.27534e-56
2.26149e-54
0
0
2.81902e-52
0
1.00212e-48
2.45419e-59
0
0
0
0
0
7.92635e-42
3.83395e-41
0
0
5.2545e-40
5.14146e-40
1.24728e-39
2.92115e-40
1.65968e-39
3.02766e-40
1.82916e-41
1.27134e-40
0
1.46532e-70
3.57313e-41
0
4.20893e-41
0
0
0
0
2.59418e-37
9.70128e-36
5.49683e-36
3.58666e-37
2.0399e-36
2.30707e-37
5.00487e-37
1.13448e-36
0
8.22639e-38
0
0
0
0
6.5518e-36
2.78476e-34
1.24624e-34
1.16735e-33
2.6787e-34
7.33964e-36
6.69223e-82
1.02909e-81
3.9276e-82
3.96811e-81
2.10611e-82
1.94885e-81
1.04689e-82
8.91225e-82
4.83161e-83
3.81674e-82
2.09236e-83
1.53799e-82
8.52129e-84
5.85182e-83
3.27484e-84
2.10878e-83
1.19334e-84
7.21313e-84
4.12407e-85
1.24618e-82
2.34836e-84
1.3569e-85
0
3.67037e-107
0
1.60686e-89
3.73822e-90
7.85425e-80
0
0
7.08288e-103
0
5.23061e-90
3.16146e-62
0
0
0
2.42654e-88
0
0
0
4.99152e-30
4.34656e-28
3.53882e-29
7.32406e-28
5.44668e-48
1.4872e-47
6.45643e-29
8.07115e-28
3.47398e-15
0
4.16604e-17
2.0514e-19
0
1.08952e-20
9.08648e-22
3.82358e-19
9.63096e-19
4.10167e-19
1.2001e-18
2.45883e-19
7.85146e-19
4.0176e-20
6.88498e-20
4.21647e-20
2.70015e-54
4.66548e-55
1.78329e-89
1.00732e-51
1.25076e-50
1.94476e-19
0
2.44768e-104
1.48118e-103
4.74919e-68
4.99107e-69
3.20594e-67
9.78385e-67
9.9482e-68
6.63823e-89
1.28192e-50
4.12097e-51
2.56433e-58
0.0642852
8.17223e-112
1.0775e-92
6.40833e-94
5.46163e-65
3.13919e-92
0
0
0
4.85005e-51
1.30339e-98
2.28912e-84
7.10918e-76
0
0
0
8.98984e-109
4.50795e-110
1.54762e-110
4.0733e-109
3.01783e-110
3.96795e-111
0
0
0
0
2.88231e-116
0
0
0
0
0
2.09076e-40
1.35147e-38
1.57251e-42
0
1.55338e-79
4.22222e-47
2.35137e-74
7.6047e-57
0
3.8691e-63
0
0.00268398
0.00360779
0.000865197
0.00122125
0.00399583
0.00138481
0.00358644
0.00130761
0.00234991
0.000867906
0.00127113
0.000467581
0.00059903
0.00146702
0.000209723
0.000605049
0.00141849
0.000523568
0.00117056
2.5257e-38
1.03626e-115
2.72773
0
0
1.69495e-61
3.37114e-75
0
0
1.30996e-61
4.8229e-44
0
0.0620935
1.51292e-40
8.6287e-55
0
0
1.29757e-56
0
5.5708e-55
6.3774e-55
0
8.85342e-54
0
0
0
0
0
1.01736e-58
1.6729e-54
6.61481e-54
0
0
0
0
0
1.2451e-58
1.47358e-60
3.2513e-60
3.34215e-63
0
2.9435e-64
1.52125e-62
2.01847e-63
0
1.88584e-50
0
1.22216e-64
2.08385e-65
1.04217e-48
3.9887e-49
0
2.05685e-50
9.70078e-50
6.83922e-49
6.44137e-50
0
0
0
8.33675e-49
0
4.67451e-46
2.32918e-46
1.55411e-64
0
3.35663e-45
6.94132e-46
4.53224e-45
4.3441e-46
0
0
2.38684e-47
0
0
1.3026e-44
8.13275e-52
0
0
0
0
0
1.80457e-71
8.19395e-51
2.55542
9.91114e-50
6.65211e-48
6.31875e-47
1.03948e-45
1.80323e-45
2.67437e-44
2.90836e-44
4.06609e-43
3.38292e-43
4.51707e-42
3.10343e-42
3.97879e-41
2.34563e-41
2.89408e-40
1.49707e-40
1.77911e-39
8.19107e-40
9.37595e-39
3.87897e-39
3.44598e-40
1.47641e-39
1.33365e-40
4.27432e-38
5.19656e-40
4.7733e-41
1.69837e-40
1.77787e-39
1.58667e-41
1.65794e-44
1.17953e-41
5.31882e-40
5.34458e-39
5.91439e-41
1.05085e-37
4.60847e-37
1.46562e-39
1.4107e-38
2.37427e-43
3.54731e-39
3.7589e-40
3.26224e-38
1.32409e-37
1.1527e-36
4.85918e-36
2.92113e-37
1.21097e-36
2.54454e-36
1.07825e-35
7.51717e-39
1.23689e-35
5.00785e-35
2.63646e-36
2.01764e-83
4.28207e-88
3.78145e-18
1.39267e-58
0
1.89814e-63
1.74966e-62
7.0078e-63
4.99977e-51
8.09696
0
6.34918e-76
0
0
1.025e-16
0
6.02994e-23
6.82649e-53
0
0
0
2.78851e-18
1.67061e-67
0
0
0
0
1.35918e-63
5.87456e-63
2.39758e-45
1.37177e-63
0
9.63336e-75
9.16645e-65
1.15842e-47
7.92195e-48
1.34298e-22
1.01179e-68
0
0
0
0
9.86174e-76
1.02086e-25
3.53823e-25
4.14832e-25
1.87286e-24
9.18307e-25
6.36908e-24
4.00643e-26
1.17691e-23
3.14249e-23
1.19785e-22
1.10742e-22
1.08495e-24
0
2.08281e-21
3.88145e-21
6.31925e-22
2.66003e-22
0
0