/*--------------------------------*- C++ -*----------------------------------*\
  =========                 |
  \\      /  F ield         | OpenFOAM: The Open Source CFD Toolbox
   \\    /   O peration     | Website:  https://openfoam.org
    \\  /    A nd           | Version:  6
     \\/     M anipulation  |
\*---------------------------------------------------------------------------*/
FoamFile
{
    version     2.0;
    format      ascii;
    class       volScalarField;
    location    "13824000";
    object      Cw;
}
// * * * * * * * * * * * * * * * * * * * * * * * * * * * * * * * * * * * * * //

dimensions      [1 -3 0 0 0 0 0];

internalField   nonuniform List<scalar> 
11831
(
0
0
0
0
0
0
0
0
0
0
0
0
0
0
0
0
0
0
0
0
0
0
0
0
0
0
0
0
0
0
0
0
0
0
0
0
0
0
0
0
0
0
0
0
0
0
0
0
0
0
0
0
0
0
0
0
0
0
0
0
0
0
0
0
0
0
0
0
0
0
0
0
0
0
0
0
0
0
0
0
0
0
0
0
0
0
0
0
0
0
0
0
0
0
0
0
0
0
0
0
0
0
0
0
0
0
0
0
0
0
0
0
0
0
0
0
0
0
0
0
0
0
0
0
0
0
0
0
0
0
0
0
0
0
0
0
0
0
0
0
0
0
0
0
0
0
0
0
0
0
0
0
0
0
0
0
0
0
0
0
0
0
0
0
0
0
0
0
0
0
0
0
0
0
0
0
0
0
0
0
0
0
0
0
0
0
0
0
0
0
0
0
0
0
0
0
0
0
0
0
0
0
0
0
0
0
0
0
0
0
0
0
0
0
0
0
0
0
0
0
0
0
0
0
0
0
0
0
0
0
0
0
0
0
0
0
0
0
0
0
0
0
0
0
0
0
0
0
0
0
0
0
0
0
0
0
0
0
0
0
0
0
0
0
0
0
0
0
0
0
0
0
0
0
0
0
0
0
0
0
0
0
0
0
0
0
0
0
0
0
0
0
0
0
0
0
0
0
0
0
0
0
0
0
0
0
0
0
0
0
0
0
0
0
0
0
0
0
0
0
0
0
0
0
0
0
0
0
0
0
0
0
0
0
0
0
0
0
0
0
0
0
0
0
0
0
0
0
0
0
0
0
0
0
0
0
0
0
0
0
0
0
0
0
0
0
0
0
0
0
0
0
0
0
0
0
0
0
0
0
0
0
0
0
0
0
0
0
0
0
0
0
0
0
0
0
0
0
0
0
3.38431e-26
-1.30022e-19
-3.25472e-19
-2.48509e-23
-3.72602e-23
1.94217e-25
-5.27923e-16
-2.33989e-25
3.77175e-28
-8.71605e-23
3.0013e-16
-6.27871e-23
-1.27921e-13
1.11767e-27
9.64503e-29
1.46309e-23
-1.51438e-26
1.2417e-21
6.02594e-14
1.0718e-30
1.30229e-29
-2.32653e-24
-3.7213e-12
1.89063e-31
1.74126e-33
-1.26727e-21
2.93037e-12
-8.90593e-30
2.14007e-24
-3.6727e-35
-6.0699e-32
4.86559e-11
2.16825e-22
5.19443e-33
8.84819e-36
-1.41611e-11
-9.30172e-24
-1.21077e-37
-4.22779e-33
-1.37887e-10
2.16237e-22
5.77541e-36
1.43175e-38
4.31557e-11
2.42702e-24
8.37752e-41
-1.23266e-35
8.1259e-11
-4.34659e-27
9.2536e-19
3.12313e-23
9.30337e-21
4.54856e-23
-8.82915e-39
1.55006e-21
1.67992e-25
1.54383e-17
2.01729e-24
1.16354e-24
-4.74869e-22
-3.50822e-24
-3.4944e-40
3.09924e-26
-7.16164e-15
7.14205e-11
-2.73222e-29
9.01519e-15
3.04331e-26
3.94339e-24
-1.25521e-40
1.64705e-42
3.06268e-11
9.27135e-25
-8.22894e-44
9.70958e-38
1.20851e-10
-2.08134e-22
2.74702e-28
-3.60858e-22
1.00296e-31
-3.66882e-33
3.16864e-23
-2.01237e-29
-1.81916e-23
-3.80783e-28
6.72411e-13
-1.56985e-34
-1.09408e-31
-7.76964e-13
7.36846e-12
1.41018e-30
-7.62726e-12
5.57829e-42
4.05959e-25
9.34202e-12
-1.67761e-44
2.08782e-25
-3.90246e-41
1.58938e-45
3.93194e-11
-1.02473e-38
-1.27517e-24
2.89015e-22
-2.17472e-34
1.84375e-24
-3.22127e-42
-1.58676e-23
1.85828e-36
1.08565e-22
1.25276e-36
1.55336e-23
-5.84656e-39
-2.65241e-27
1.2008e-18
-3.81395e-17
2.89464e-26
-8.27572e-26
3.84465e-22
1.39217e-23
-8.41035e-20
-2.05189e-25
-4.45385e-20
9.57946e-24
-2.68808e-26
-7.05582e-23
1.97171e-21
5.14274e-24
3.02587e-22
1.01201e-27
8.1663e-22
-2.67335e-23
1.58004e-34
-5.44068e-30
-3.16316e-11
1.9797e-15
3.3241e-25
-1.52323e-22
1.47733e-24
-2.06373e-14
-4.51553e-26
9.81849e-32
3.25416e-11
1.53843e-12
2.78663e-39
-5.5856e-24
5.93837e-42
-5.09084e-37
-4.0972e-30
-3.12266e-38
4.85426e-11
-1.43644e-11
2.93592e-24
5.15387e-11
-7.02523e-22
5.91877e-24
6.3029e-16
2.97996e-27
6.3367e-33
-5.55547e-15
2.94993e-14
1.68818e-30
-1.21239e-16
-2.67801e-24
1.54015e-10
2.51255e-42
7.2789e-26
1.4127e-12
4.95189e-46
3.9889e-26
4.47652e-26
-1.48302e-25
-4.36527e-25
-1.39437e-24
-3.63031e-24
-3.97047e-24
-1.01247e-23
-5.74778e-25
6.37232e-24
7.28531e-23
2.19213e-22
3.84217e-22
9.47306e-22
6.46419e-22
2.3456e-21
1.75226e-21
3.40542e-21
-7.0205e-21
-2.33209e-20
-6.96308e-20
-1.9233e-19
-2.06308e-19
-5.11499e-19
-2.25038e-19
-3.27381e-19
2.0022e-18
6.2123e-18
1.41902e-17
3.73242e-17
1.83546e-17
9.145e-17
5.25517e-17
2.15978e-16
1.46783e-16
4.98039e-16
3.9826e-16
1.15005e-15
1.03427e-15
2.63528e-15
2.51022e-15
5.93377e-15
5.73143e-15
1.24306e-14
1.2618e-14
2.2814e-14
2.72512e-14
3.88847e-14
5.89101e-14
5.88697e-14
-1.61497e-13
-5.0131e-13
6.43029e-14
-1.4145e-12
-6.67029e-14
-3.70449e-12
-7.5165e-12
-1.61511e-11
-9.27021e-12
-3.32042e-11
-3.2949e-11
-5.80954e-11
-6.61459e-11
-9.2103e-11
6.56832e-11
2.67521e-10
9.84777e-10
2.34774e-09
8.41926e-10
5.39575e-09
2.34074e-09
1.19693e-08
1.47148e-08
2.78247e-08
2.53646e-08
5.17059e-08
3.28134e-08
4.20159e-08
9.2915e-08
2.74484e-08
-2.73718e-07
-7.33938e-07
-8.20041e-08
-1.79491e-06
-3.49686e-06
-7.15095e-06
-9.09225e-06
-1.62423e-05
-1.41071e-05
-2.80295e-05
-2.40034e-05
-3.47969e-05
-4.7186e-05
-4.59178e-05
-7.76363e-05
-4.98119e-05
0.00010583
0.00030466
-1.2784e-05
0.000751814
0.00166948
0.00335977
0.0016922
0.00649627
0.00958825
0.017115
0.0210326
0.012099
0.0296052
0.0217461
0.0496393
0.0377654
0.0806952
0.063424
0.127215
0.103065
0.194592
0.162109
2.06089e-16
0.28882
0.246858
0.415875
0.428548
0.363999
0.187677
0.285252
0.124424
0.196593
0.586846
0.558202
0.0692027
0.732262
0.633658
0.115724
0.0294457
0.801229
0.639263
0.0546689
0.00638402
0.775671
0.556574
0.0169574
0.64294
0.410206
-0.0034967
-0.000981158
0.448784
0.251777
-0.00560761
-0.00635476
0.259122
0.125573
-0.00528323
0.120213
0.0480523
-0.00665413
-0.00375925
0.0414799
0.012013
-0.00511372
0.00823828
0.000272878
-0.00198162
-0.00299984
-0.00112418
-0.00179111
-0.00128001
-0.00146959
-0.00118771
-0.000890187
-0.000819325
-0.000410015
-0.000421367
-0.000142297
-0.000165352
-3.33225e-05
-4.73179e-05
-1.71367e-06
-7.49055e-06
3.44362e-06
1.51476e-06
2.92924e-06
2.05522e-06
1.68568e-06
1.43543e-06
6.74108e-07
6.76251e-07
1.87283e-07
2.25762e-07
2.83434e-08
-0.000720234
4.95183e-08
-0.00127041
-0.00426956
-1.84898e-05
5.54953e-09
-1.16856e-08
-0.0020383
-0.00568831
-9.55903e-05
-1.8408e-08
-1.15378e-08
-0.00302299
-0.00710445
-0.00419701
-0.00843185
-1.24792e-08
-4.03454e-09
-0.00546774
-0.00934371
-3.03541e-09
-3.34646e-10
-0.00663742
-0.00996272
-0.00758307
-0.00968812
9.6631e-11
2.51762e-10
-0.00361634
-0.00816235
-0.00781736
-0.00852719
-0.00362929
3.52947e-10
1.74496e-10
1.6157e-10
5.39961e-11
6.35447e-11
9.52545e-12
-0.00786975
0.00357154
3.74127e-11
1.60216e-11
-0.00610263
0.0136873
-4.30203e-13
-0.00291126
0.0264235
1.80269e-12
0.00201595
0.0409142
-1.15864e-12
-0.00550823
0.00837449
0.0559171
-0.00225704
-5.93681e-13
0.0156708
0.070063
0.168697
0.185915
0.369564
0.378032
0.658918
0.634023
0.974104
0.884062
1.22103
0.587615
0.776579
0.525682
1.31615e-05
9.36112e-05
8.27418e-05
6.35522e-05
4.64627e-05
2.14826e-05
1.25133e-05
2.1249e-06
2.66081e-07
-1.13835e-06
-9.90858e-07
-7.26935e-07
-5.05865e-07
-1.99193e-07
-1.03999e-07
-3.47497e-09
8.99928e-09
1.37882e-08
1.09106e-08
6.06325e-09
3.7711e-09
1.63443e-08
8.47737e-10
2.84038e-10
-1.8942e-10
-1.67109e-10
-1.20877e-10
-7.93418e-11
0.660576
0.454669
-6.99134e-13
-2.61086e-11
-1.19217e-11
1.56255e-12
2.05708e-12
-5.02672e-11
-5.10462e-13
0.544785
0.380723
2.38626e-07
1.93648e-12
1.32356e-12
-2.49778e-13
-2.03664e-13
-2.83186e-14
-1.31084e-15
0.436479
0.308851
5.27133e-13
2.57786e-13
-2.59474e-13
2.11555e-14
1.08594e-14
1.62673e-14
2.07212e-16
-2.07529e-14
0.340412
0.447012
0.242888
-2.64749e-14
-1.87327e-14
7.33658e-15
6.28805e-15
-3.51757e-14
1.13727e-15
3.10425e-16
-8.01893e-15
-4.09305e-15
-1.18726e-14
-1.80655e-15
1.98895e-16
2.3973e-16
-6.95277e-16
2.04045e-16
1.45424e-16
8.62226e-17
1.48313e-16
4.90713e-17
8.56209e-18
2.40582e-18
2.64878e-17
-1.20564e-19
-1.60904e-18
-1.07543e-18
-7.47038e-19
-6.56813e-19
-2.72496e-19
0.258662
0.185596
-6.83458e-19
-1.22688e-19
3.07125e-21
-2.18682e-16
-3.45603e-16
0.190959
0.138026
0.125029
0.0937744
0.0782314
0.0595163
-1.7102e-16
-1.471e-16
-1.48891e-17
0.0454021
7.63107e-21
1.04314e-20
0.0351002
-2.76889e-17
-7.44839e-18
0.100106
0.0243935
4.71689e-18
7.27934e-18
8.06156e-18
8.85393e-18
1.62835e-17
2.71832e-18
6.10639e-21
2.368e-21
-4.39725e-12
7.69727e-18
2.06687e-17
0.0192145
-0.00228504
-0.00269734
6.57299e-08
2.27234e-07
7.45534e-08
1.93888e-07
7.52072e-08
1.49494e-07
6.80953e-08
1.01307e-07
5.52905e-08
6.01464e-08
4.05589e-08
3.21732e-08
2.61779e-08
1.12812e-08
1.47106e-08
-5.38423e-09
7.44752e-09
-1.72268e-08
2.36911e-09
-2.4336e-08
-1.40944e-09
-2.70323e-08
-3.8647e-09
-2.64186e-08
-5.16604e-09
-2.33644e-08
-5.44933e-09
-1.90098e-08
-5.10084e-09
-1.4391e-08
-7.94899e-10
-4.32944e-09
-1.01361e-08
-3.38822e-09
-6.67131e-09
-2.46794e-09
-4.06582e-09
-1.67513e-09
-2.29732e-09
-1.06249e-09
-1.19091e-09
-6.24784e-10
-5.48174e-10
-5.71813e-10
-3.09339e-11
2.01575e-09
2.01792e-09
2.12853e-10
1.72985e-09
7.50726e-09
5.39206e-09
1.35333e-09
3.70014e-09
1.22715e-08
7.78244e-09
2.43912e-09
4.78076e-09
-5.49869e-10
1.55045e-09
2.84993e-09
7.8631e-09
4.44617e-09
1.65112e-09
2.45048e-09
6.00714e-09
3.16815e-09
7.11787e-09
3.60916e-09
1.63315e-09
1.7916e-09
3.66806e-09
1.76797e-09
8.71595e-10
8.37167e-10
4.16046e-10
3.89164e-10
1.95227e-10
1.77344e-10
3.40032e-09
9.0074e-11
7.92625e-11
4.08251e-11
3.47625e-11
6.23785e-11
2.64888e-11
1.4964e-11
1.10469e-11
1.80372e-11
6.32428e-12
4.52617e-12
-3.80593e-08
2.62525e-12
1.82261e-12
1.01281e-21
-7.02791e-23
7.37753e-23
1.07077e-12
0.0121102
-1.47268e-22
-0.0031461
-0.00292964
4.95308e-18
1.95778e-17
0.00975387
-2.23277e-22
-0.00380673
-0.00293689
7.21577e-13
4.29284e-13
-8.97969e-23
-3.59099e-23
1.8542e-21
4.32954e-11
0.00553182
-0.00433013
-0.00272995
1.97276e-18
1.33214e-17
-1.66362e-23
5.67442e-25
-0.00452211
-0.00236828
2.80961e-13
1.6923e-13
2.3943e-13
0.00457998
0.0075694
7.84186e-09
-0.00438763
-0.00189473
-0.00391293
-0.00139864
-0.000411817
-0.000210019
2.47384e-05
6.3765e-05
-6.69071e-05
7.74198e-05
6.20149e-05
5.35245e-05
2.54741e-05
1.67771e-05
3.92035e-06
1.18421e-06
9.62159e-06
-9.77507e-07
-1.12779e-06
-8.24575e-07
-6.52995e-07
-2.52947e-07
-1.34462e-07
-1.05278e-08
1.20394e-08
1.62613e-08
1.48713e-08
1.90154e-08
7.41123e-09
1.12925e-08
1.79106e-08
-1.7622e-19
6.60248e-18
0.00230447
9.55642e-14
0.00363871
0.00567094
-1.23874e-07
6.56212e-14
9.07316e-25
1.20018e-24
0.0027821
0.00410834
3.75092e-14
1.25489e-13
7.41983e-09
1.50807e-08
-1.22674e-18
-7.86153e-19
1.26682e-18
0.00205182
0.00288195
2.50374e-14
1.44831e-14
4.35863e-13
0.0205073
-1.91253e-08
1.98012e-15
6.04151e-09
3.38039e-21
6.66384e-25
2.25844e-25
4.66624e-25
-6.96328e-27
-0.00562214
2.06622e-26
0.00146234
0.0019598
4.11236e-09
1.07591e-08
-6.74547e-19
-1.59614e-19
-8.05778e-07
9.40266e-15
5.50314e-15
-1.09413e-26
-1.46927e-26
0.000956236
0.00100875
0.00129362
-0.000176481
0.0946143
1.83879e-09
6.5657e-09
-2.39192e-11
-4.77871e-20
1.61277e-20
0.000674432
0.000829879
0.00147867
0.000915351
0.00153467
0.000517632
3.47666e-15
2.0584e-15
3.02825e-15
-8.05729e-27
-2.55573e-27
1.14583e-15
1.04164e-08
2.20227e-09
0.00055369
0.000314488
2.22736e-20
1.08607e-20
5.38459e-10
3.42058e-09
-0.00387816
4.19244e-16
7.58149e-16
1.57046e-15
4.26836e-16
-1.01974e-27
1.39779e-28
4.39103e-10
0.00254146
0.000871689
0.00081733
0.000197355
0.00011606
-2.48029e-05
-7.81834e-05
-6.012e-05
-8.02836e-05
-3.8924e-05
-4.33881e-05
-1.46987e-05
-1.29034e-05
-2.49612e-06
-7.73268e-07
-1.51755e-05
0.000326811
0.000186376
6.8653e-21
9.67405e-22
2.28278e-20
-8.97875e-11
1.40528e-09
9.03939e-09
5.16384e-09
1.45677e-08
1.05161e-08
1.32178e-08
1.35074e-08
-3.07875e-08
-5.51357e-10
-1.55037e-07
-6.64353e-08
-3.70031e-07
-2.07295e-07
-5.65459e-07
-3.83674e-07
-5.25252e-07
-4.76603e-07
6.86905e-07
-7.30989e-08
2.44281e-06
3.87281e-06
1.55342e-06
-1.1092e-06
0.362962
0.719735
8.28369e-07
1.53041e-06
4.1127e-09
1.72167e-10
3.40257e-17
1.92959e-17
9.37366e-17
7.84486e-17
1.46006e-16
1.69061e-16
-9.85089e-17
2.10938e-16
5.10664e-18
2.75051e-16
1.56584e-16
1.13666e-28
-3.82375e-28
8.67504e-29
1.60889e-28
2.32318e-29
5.31538e-29
8.2934e-07
9.56747e-07
9.28473e-06
4.80069e-06
8.74168e-10
6.70637e-09
2.88307e-21
1.61097e-20
-3.01813e-07
0.00018813
0.000107979
0.000100906
-2.15383e-30
3.39785e-07
2.914e-07
5.87033e-05
8.9474e-30
1.45721e-05
8.99662e-06
9.8317e-17
5.6587e-17
-3.1869e-07
-1.23826e-30
5.15646e-05
3.53479e-07
5.48019e-08
1.45096e-08
2.10452e-07
-2.403e-08
1.07639e-07
-5.66919e-08
-3.4636e-08
-3.66914e-08
-7.74095e-08
-3.48098e-08
-8.41892e-08
-2.91776e-08
-8.29683e-08
-2.07656e-08
-7.5102e-08
-1.17325e-08
1.00084e-09
3.14045e-09
-3.4395e-09
4.29793e-09
2.13407e-09
1.90676e-09
4.29628e-09
1.49597e-09
2.97755e-10
9.10858e-11
-7.24305e-11
-9.10799e-11
4.00141e-09
-4.41823e-11
-3.73895e-11
-9.21643e-12
-4.20494e-12
-2.70818e-11
-4.31271e-13
1.64542e-12
1.66676e-12
-1.61298e-11
-1.30271e-08
7.423e-13
5.56387e-13
-1.50787e-11
6.11214e-05
3.33427e-05
1.6291e-22
7.51594e-21
1.65991e-05
1.18791e-05
1.87235e-05
-2.79715e-30
3.46352e-17
5.59438e-17
2.01506e-17
3.07057e-17
1.10527e-17
9.40811e-14
1.87892e-14
-2.335e-10
-1.09142e-10
3.37843e-05
1.85243e-05
-9.81082e-22
1.57197e-21
-4.45262e-30
1.57458e-17
-2.84307e-14
-2.87318e-14
-2.61711e-14
-2.50916e-14
-4.4073e-14
-2.05493e-14
-5.41973e-15
-2.48037e-15
-4.3619e-14
1.36934
1.55619
1.76631
1.8513
2.11719
2.00692
2.34954
1.98126
2.34498
1.84667
2.22196
1.58604
5.5028e-15
-3.16847e-13
-2.11201e-13
-0.0101676
2.84211e-06
8.52851e-06
7.44842e-06
7.88308e-06
4.42814e-06
5.59149e-06
-6.91783e-08
3.2378e-06
3.38528e-06
3.22526e-06
-5.96948e-06
-6.6141e-07
-2.2593e-05
-8.78467e-06
7.67876e-25
1.48666
-4.41621e-05
-2.07003e-05
4.87805e-16
7.04178e-16
-1.12786e-13
-1.35434e-13
1.20279e-17
3.75624e-16
2.93757e-16
-1.65586e-14
-8.7497e-31
5.72985e-18
1.17667e-13
-7.15258e-14
1.94437
1.23617
-1.76981e-10
-1.82628e-10
-6.21992e-05
-3.27673e-05
9.86828e-07
1.82285e-05
1.00707e-05
2.85376e-21
-2.02029e-22
2.78925e-22
-1.71433e-22
-1.30804e-22
-7.61508e-23
-8.63069e-23
-1.75981e-23
-3.30916e-23
-1.08783e-24
-6.26496e-24
9.45026e-25
-5.20414e-26
5.50676e-25
4.37117e-25
1.78836e-25
1.78965e-24
2.26961e-25
1.10895e-25
1.8715e-25
-6.11317e-25
2.96706e-26
1.27041e-27
8.3162e-26
-1.56996e-24
-5.82734e-27
-7.20426e-27
-1.73923e-25
-2.38781e-24
-2.2794e-27
-1.04244e-27
-5.20879e-25
-2.2978e-24
6.77501e-30
2.26182e-10
-1.53279e-10
7.89818e-10
1.64942e-28
-1.00394e-21
-1.16513e-21
-1.61684e-30
3.34686e-13
-6.80718e-15
-5.41495e-14
-3.18246e-14
-2.40356e-14
-1.91937e-14
-6.54531e-15
-6.84502e-15
-1.0286e-15
-1.56684e-15
3.0416e-17
-1.71926e-16
9.39172e-17
3.6657e-17
-3.35043e-16
5.28777e-17
-1.72051e-17
-4.20234e-16
-6.14342e-17
-4.28647e-16
-9.15929e-17
-3.57516e-16
-9.9603e-17
-2.43352e-16
-8.88162e-17
-1.26666e-16
-9.32278e-18
-6.69317e-17
-5.42474e-17
-3.95152e-17
-4.22566e-18
-1.86401e-17
3.19352e-17
-1.21775e-16
-6.17954e-18
5.32284e-17
3.13081e-16
2.67871e-16
5.89286e-17
1.91904e-16
-1.64587e-17
5.69691e-14
4.54373e-16
2.03782e-16
1.18278e-16
7.25775e-17
5.90198e-17
-6.78926e-18
2.41986e-17
-5.07674e-17
-2.6262e-11
1.59478e-09
1.04261e-16
7.64503e-18
6.39511e-18
-6.78895e-17
-4.07429e-16
-3.18829e-16
8.5639e-29
-6.80303e-17
-2.21774e-16
-6.18359e-16
-2.97266e-16
6.60848e-17
2.54438e-17
1.98902e-16
7.63651e-19
1.10145e-16
-1.0852e-17
-8.89671e-18
-7.08016e-18
-2.15567e-18
-1.01989e-18
-5.07508e-18
-3.37843e-19
1.81033e-19
1.69621e-19
2.98403e-20
1.33075e-19
4.99801e-20
2.78784e-20
9.93863e-20
1.19311e-20
-2.16054e-21
-2.37769e-21
3.53376e-21
-2.02833e-21
-8.96026e-22
-5.38255e-22
-7.95661e-25
-1.5306e-24
-1.33942e-16
-1.18475e-16
-4.46715e-17
1.30442e-16
1.46976e-15
1.31262e-15
1.92851e-16
1.01613e-15
4.00469e-15
2.45411e-15
7.1275e-16
1.3347e-15
2.84432e-15
1.08785e-15
6.62786e-16
3.52286e-16
2.79972e-16
2.92858e-17
-1.13386e-15
-1.10028e-15
-1.00365e-16
-8.80827e-16
-4.26744e-15
-2.73646e-15
-9.76946e-15
-5.34057e-15
-1.64052e-15
-2.75528e-15
-9.27381e-16
-1.29833e-15
-6.72873e-30
-3.65409e-28
-1.38969e-10
-4.8593e-11
-2.27739e-11
5.92097e-13
3.95356e-12
3.14099e-12
2.44582e-12
8.38491e-13
3.61538e-13
-2.38522e-14
-7.06874e-14
-5.12562e-14
-3.60633e-14
-1.06264e-14
-3.43494e-15
-2.00117e-14
1.79438e-16
-8.69456e-15
1.12364e-15
1.31583e-15
-1.87634e-15
-5.47062e-22
-1.7556e-07
-9.65449e-06
1.52408e-17
-8.25607e-25
-2.47507e-25
2.81311e-18
-2.88099e-30
-9.66053e-30
-3.96033e-26
9.60733e-06
1.60797e-05
5.35451e-06
5.25232e-06
2.80178e-06
6.15909e-29
1.90562e-28
9.68106e-30
1.17981e-15
9.66436e-16
-8.04596e-22
-1.55791e-21
-2.21389e-22
2.05204e-32
3.53819e-32
1.24315e-16
-4.42899e-23
8.44734e-24
-4.8886e-16
-5.73377e-16
-6.9785e-05
-3.99188e-05
-1.4015e-14
-0.000111267
1.54913
2.30567
0.863121
6.52146e-17
1.57826e-17
1.07665e-17
8.35136e-20
-1.87284e-18
-1.32097e-18
-1.81617e-18
-5.01859e-19
-5.25179e-19
-7.95816e-20
-1.23732e-19
8.40991e-22
-1.50414e-20
5.78228e-21
1.80752e-21
3.07107e-21
-5.66127e-25
0.0232681
4.30479e-32
2.37875e-32
-3.55031e-19
1.87643
2.64571
2.30418e-10
2.49783e-09
-2.42676e-16
-2.23287e-16
-2.86364e-16
-4.76095e-17
3.51967e-18
2.59622e-23
1.90034e-23
-7.49995e-17
3.1183e-17
4.48933e-16
3.27117e-16
4.49005e-17
2.14517e-16
2.60266e-06
1.79349e-21
-5.11339e-30
-1.22968e-29
6.91139e-24
0.000306211
-3.01109e-07
-1.01566e-07
-2.69281e-10
0.0247148
0.0915436
3.21248e-05
-6.48916e-16
2.38351e-05
2.42502e-23
2.19681e-07
-1.61052e-05
-2.10778e-05
-7.33819e-06
-1.07802e-05
-7.16289e-20
-2.86437e-14
0.646901
2.05431e-18
1.0196e-18
7.25867e-19
-2.41756e-20
1.50178e-17
6.12659e-18
1.04846e-17
5.1621e-18
-4.7464e-18
-1.3087e-19
-2.93991e-17
-9.27362e-18
-5.33883e-17
-1.86939e-17
-5.48909e-17
-1.36927e-16
-8.56192e-17
-1.57549e-16
1.63279e-16
6.57005e-16
2.89495e-17
5.75353e-16
1.81342e-16
9.05074e-16
3.15356e-16
9.5647e-16
3.64276e-16
7.15278e-16
1.72543e-15
2.85694e-16
3.05067e-16
-1.72546e-16
1.07084e-16
-4.69844e-15
-1.55593e-14
-2.55405e-14
-7.35318e-14
4.62141e-19
-8.61064e-15
0.00119295
3.71383e-06
-0.00593234
2.1976
2.93797
2.48898
3.15749
2.72651
3.27938
-2.81206e-14
8.20084e-06
1.25813e-05
-3.0906e-06
-5.13853e-06
-6.0039e-31
-1.92622e-30
-4.68628e-22
-1.42514e-21
-6.28441e-22
-2.37216e-21
8.73765e-16
1.31259e-15
3.23263e-16
-5.96785e-31
5.39939e-33
2.03883e-33
1.39228e-06
1.46552e-06
-9.02684e-30
9.10292e-22
6.31318e-24
-1.48756e-16
3.64113e-19
2.52835e-19
-4.0973e-05
-2.93432e-14
-1.05366e-14
2.88636
-1.24876e-05
-6.39736e-06
-3.44039e-15
-4.75206e-15
3.10941e-23
3.75157e-17
1.31161e-16
0.384002
0.265874
1.82229e-08
1.64441e-15
1.44147e-20
1.7184e-21
3.1237e-24
3.29211
0.0047046
-0.00220139
6.19481e-06
8.59156e-06
-1.7689e-22
2.61598e-17
7.60659e-17
1.28154e-19
8.68386e-20
-5.10424e-34
-3.54699e-34
0.125543
0.0766841
-0.00150481
6.17281e-10
3.34228e-09
-6.59861e-14
7.28922e-07
-9.2327e-31
8.59008e-22
7.97071e-22
1.21901e-06
-2.01172e-25
-1.18105e-06
1.23827e-16
-9.31801e-18
-5.48252e-31
7.51255e-07
-1.20091e-10
0.0222494
0.00876797
-0.00472858
1.97219e-14
-3.74995e-14
1.65294e-17
4.22524e-17
-9.00274e-31
-8.68174e-06
-5.92175e-06
-2.64973e-14
-1.01259e-14
-5.73629e-24
2.95201
-0.00617062
0.00116878
-0.00638813
8.52795e-06
1.65606e-16
8.55669e-17
1.66326e-22
7.14075e-23
3.07587e-18
5.69653e-22
-1.87092e-22
3.73992e-07
-7.23064e-32
1.73351e-19
-1.72607e-34
-9.87168e-35
-2.29664e-34
-5.74853e-35
-1.44424e-34
-6.31357e-34
1.02319e-20
-3.24569e-25
-2.16516e-25
3.22857
-2.33983e-10
-1.58271e-10
1.99581e-12
-3.3329e-35
-8.84683e-35
-4.82456e-37
2.26167e-17
4.29749e-17
4.44667e-20
2.94163e-20
5.39003e-20
-9.10669e-15
-6.92906e-15
1.22617e-13
6.81905e-20
2.99245e-20
-2.83704e-21
8.06408e-21
-6.07683e-07
-4.89643e-14
-2.05545e-13
-1.482e-13
-5.57935e-13
-4.3381e-13
-1.47505e-12
-1.23048e-12
-3.82545e-12
-3.38033e-12
-9.67074e-12
-8.99363e-12
-2.35665e-11
-2.32213e-11
-5.55084e-11
-5.81978e-11
-1.26634e-10
-1.42324e-10
-2.78837e-10
-3.38979e-10
-5.99634e-10
-7.71542e-10
-1.26422e-09
-4.67917e-10
-5.68964e-10
-2.52028e-09
1.21168e-10
5.50587e-09
1.63403e-08
3.80639e-09
4.55088e-08
7.21096e-08
1.79178e-07
1.21081e-07
4.33532e-07
5.10205e-07
1.16794e-06
1.18295e-06
2.59973e-06
2.61146e-06
5.59509e-06
4.99705e-06
1.03136e-05
1.1772e-05
2.08104e-05
1.6312e-05
3.16206e-05
4.10546e-05
5.98986e-05
7.91563e-05
0.000110836
7.57323e-05
0.000134626
0.000200309
0.000233841
0.000353505
0.000397347
8.39126e-05
-3.06799e-10
-1.77355e-11
0.000608876
0.000661346
-6.2287e-12
0.000400642
0.000643228
0.00107731
0.00100689
0.00054466
0.000813833
0.0015352
0.00118207
0.00227747
0.00166776
0.00328573
0.0022835
0.00460579
0.0030314
0.00626907
0.00389728
-1.37903e-12
0.00827734
0.000492004
0.00484661
0.00132636
0.000395401
0.00402272
0.0105923
0.00582176
0.0022945
1.69985e-05
4.05673e-06
4.94713e-06
2.30475e-32
3.77871e-07
-2.06002e-17
-1.40365e-17
1.17144e-17
-2.78039e-21
1.52142e-20
1.88443e-07
2.09545e-32
2.81701e-22
-1.0506e-21
-1.7436e-23
-3.02286e-25
1.10809e-09
3.69586e-09
5.36517e-09
3.52727e-09
-8.93658e-09
-1.07955e-13
-4.21604e-23
0.0440813
3.31946
-2.99967e-20
1.91355
-0.00589767
-0.00260537
-1.63046e-14
-0.000863662
-0.00214193
3.01151e-16
9.30884e-18
4.0211e-18
1.33973e-23
5.11641e-23
-1.42584e-25
-2.89333e-25
-2.76441e-26
7.81171e-07
-1.82464e-06
-3.39676e-06
-1.9062e-06
-1.7237e-06
-1.35887e-06
-1.74866e-14
-7.04165e-15
3.15008
2.93257
-6.85197e-23
0.00531198
-2.43384e-07
3.105e-08
2.56593e-07
2.05947e-08
-3.70771e-15
-2.77717e-15
-1.32386e-15
-1.06694e-15
-4.62689e-16
-3.99445e-16
-1.58216e-16
-1.46011e-16
-5.31882e-17
-5.11704e-17
-1.74852e-17
-1.74357e-17
-5.59233e-18
-5.83139e-18
-3.8969e-18
-1.74308e-18
-1.91427e-18
-4.80085e-18
-1.67743e-18
-6.45328e-16
-5.29284e-19
-2.89148e-18
-1.064e-18
-7.55604e-09
3.36678
-2.38969e-18
1.31062e-17
-7.04329e-18
-6.46173e-18
-3.03423e-18
8.17516e-05
-0.000891399
-0.00137118
0.934453
-9.15062e-24
0.0567804
3.39287e-12
-2.28499e-08
-9.85947e-08
0.00254469
0.000819045
0.00674336
1.7837e-20
3.05895e-20
1.03301e-14
3.94017e-14
-8.68621e-15
1.52983e-14
5.05322e-14
-1.93038e-21
-1.8833e-35
-5.00315e-35
1.76415e-07
-3.67894e-18
-2.0158e-23
4.38403e-23
-1.61067e-21
-2.05757e-23
2.35036
6.48622e-11
-6.20368e-11
-2.51853e-11
-0.00166229
-0.00130221
-0.00132986
6.51812e-07
-0.00498554
-0.00407871
4.16194e-13
3.06991e-13
1.53959e-19
1.48192e-07
1.19928e-07
-7.99792e-07
-8.0171e-07
1.86729e-07
9.3387e-08
2.20179e-06
1.7681e-32
3.8966e-32
4.25583e-33
-2.18844e-21
-3.67113e-21
-8.07433e-18
-1.64015e-17
-3.61414e-24
-1.65619e-22
-1.74784e-21
1.46297e-08
1.57049
-0.0064298
-1.6018e-22
-1.29492e-15
-7.21339e-19
-1.32311e-23
-9.00557e-27
3.99324e-27
-0.000591584
-0.000505523
3.07114
2.79542
3.57965e-18
-1.26728e-07
-2.67741e-07
0.0117952
0.000804122
0.00017437
1.89307e-13
1.0339e-17
4.21779e-18
-1.01249e-35
-2.73502e-35
5.07834e-36
-4.29216e-36
7.03835e-34
3.47398e-34
1.69525e-33
8.93214e-34
3.93648e-34
4.93469e-34
-1.79424e-32
-7.53895e-33
-4.85697e-32
-2.64809e-32
-4.17661e-32
-3.12624e-32
2.97573e-31
1.29227e-31
1.3412e-30
7.37311e-31
1.96292e-30
1.16856e-30
-4.14268e-30
-9.86183e-30
-6.13555e-29
-3.21149e-29
-1.0353e-28
-5.64067e-29
8.65448e-29
2.43881e-28
2.35043e-27
1.0927e-27
4.15848e-27
8.48776e-27
-1.05382e-27
1.10314e-27
-5.78227e-26
-2.22814e-26
-1.36994e-25
-2.77283e-25
-2.21095e-25
-1.46074e-25
9.8261e-25
2.5813e-24
9.20268e-24
4.55837e-24
1.31685e-23
2.26973e-23
-3.16914e-23
-8.40917e-24
-2.45089e-22
-5.32549e-22
-9.88606e-23
-8.69815e-22
-1.73463e-21
-2.11897e-22
1.43126e-21
2.05133e-20
5.07552e-20
9.08891e-20
1.84823e-19
4.47102e-20
1.12128e-19
1.10255e-19
-1.38192e-18
-3.60422e-18
-8.69277e-18
-1.74436e-17
-1.75391e-17
-2.67377e-17
-1.05212e-17
-3.39744e-17
-3.35423e-17
1.92486e-16
5.0871e-16
1.12602e-19
-9.91618e-18
1.27122e-15
2.82642e-15
5.47293e-15
2.96331e-15
1.01806e-14
7.65808e-15
8.58719e-15
1.82393e-14
-1.80296e-15
-1.39405e-13
-3.34672e-13
-4.30541e-14
-7.4645e-13
-1.35708e-12
-2.41348e-12
-1.52402e-12
-4.09622e-12
-2.25778e-12
-2.45351e-13
2.69138e-11
6.32053e-11
-2.85438e-12
1.46467e-10
2.64272e-10
7.83552e-11
1.37931e-10
4.57648e-10
4.35382e-10
5.57069e-10
-1.1106e-09
-3.23615e-09
7.5122e-10
-1.11204e-08
-2.18137e-08
-3.27313e-08
-5.30257e-08
-3.92405e-08
-8.09383e-08
-4.24926e-08
2.09387e-10
-1.12072e-07
1.38017e-07
9.46042e-07
1.94575e-06
3.99685e-06
6.61697e-06
-1.92483e-08
-1.4196e-07
7.95102e-06
1.12869e-05
1.04624e-05
5.20801e-06
5.33882e-06
-1.08185e-06
9.02304e-33
-1.25286e-24
1.57897e-09
1.1968e-12
4.25124e-12
-5.88781e-12
3.65826e-12
1.96463e-12
2.53157e-12
3.18749e-12
1.49019e-12
2.50505e-12
4.99452e-13
7.1745e-13
1.57532e-12
2.71409e-13
8.56649e-13
2.02668e-12
1.48046e-12
-1.0119e-12
1.25895e-12
-1.38634e-11
-4.1092e-12
-3.80239e-11
-1.76649e-11
-6.08329e-11
-3.5105e-11
-4.36788e-11
-4.2933e-11
1.54011e-10
1.6908e-11
5.9965e-10
2.28972e-10
1.15467e-09
5.89744e-10
-1.00042e-13
4.07313e-23
5.3535e-23
-1.15258e-18
-5.0727e-19
-3.84272e-19
-1.99754e-19
-2.11781e-18
-1.35314e-19
-7.42634e-20
-2.77189e-20
-1.84031e-20
-7.4503e-15
-1.25901e-14
1.55972e-16
2.90589e-16
2.45907e-13
2.41951
2.44334
9.89281e-21
1.58179e-20
1.39189e-12
8.7662e-13
2.17041e-06
1.07323e-05
-4.8613e-16
-2.79904e-13
-2.1193e-18
-4.12533e-18
6.93269e-18
-2.52237e-16
0.000730444
4.11882e-12
-3.79472e-13
-6.30828e-13
2.11986e-20
1.57842e-21
4.67424e-25
9.82046e-25
8.40926e-23
-3.61479e-18
2.05118e-17
8.53228e-13
-3.57477e-07
-4.05701e-07
-2.1268e-11
8.30085e-33
3.3275e-32
-1.22873e-21
-2.22693e-22
-3.32241e-18
-1.02134e-17
-2.59301e-19
-3.14984e-22
-1.49258e-21
3.7143e-34
5.31063e-08
2.52147e-08
-6.55479e-12
9.01751e-07
9.42319e-07
9.08412e-08
4.55992e-08
3.28313e-27
1.34809e-27
2.16803e-27
1.42937e-09
9.14502e-10
-3.49504e-21
-1.53779e-21
-9.5109e-22
-1.95735e-22
-6.47382e-08
-4.95113e-15
2.32226e-15
-2.64119e-16
8.56185e-20
1.95066e-20
-9.83044e-21
3.51106e-21
4.11432e-20
1.11139e-20
-0.00117232
3.56373e-12
4.60633e-12
-2.36434e-07
-2.46036e-07
-1.43508e-07
7.2036e-31
0.00011887
-0.00387176
-0.00404292
-0.00288044
0.00245036
-0.000868809
0.0183787
0.00808934
0.048244
0.0261116
0.0927112
0.0544555
0.0130487
0.0304283
-1.04129e-12
-1.29658e-12
-5.08148e-05
-0.000112367
5.88241e-32
4.87838e-34
-1.00795e-18
3.76429e-17
2.02029e-18
8.7461e-18
-0.000145736
-8.49972e-05
-3.744e-23
-5.77294e-22
-2.24274e-22
-2.83305e-21
-2.10445e-21
1.30661e-14
5.27331e-14
-7.69213e-21
-0.00258436
-2.05856e-05
8.73956e-06
-8.44442e-31
-2.23079e-30
1.81875e-31
1.70826e-31
1.22703e-31
1.91306e-31
2.44417
2.11493
2.46619
0.48917
-3.01078e-19
7.87854e-20
1.00209e-19
0.0393501
1.07506e-16
2.94122e-16
1.20057e-17
4.15755e-14
-2.98967e-14
5.56327e-13
2.78707e-13
1.8648e-12
1.34718e-12
3.61407e-12
3.08731e-12
2.23497e-12
8.46879e-13
2.49724e-12
4.45516e-13
1.7983e-12
1.83924e-13
1.17848e-12
3.68462e-12
3.10649e-14
-2.57837e-08
2.21449e-06
9.76587e-07
1.7178e-06
7.1311e-07
1.20877e-06
4.71316e-07
7.64766e-07
2.78475e-07
4.2806e-07
2.80556e-07
1.43734e-07
2.05051e-07
6.29055e-07
2.74072e-07
8.78611e-07
3.37315e-07
1.15483e-06
3.53512e-07
6.2045e-08
1.8814e-08
2.95831e-07
-6.88681e-08
1.4951e-07
-2.17125e-07
-1.18014e-07
-1.88595e-07
-4.05143e-07
-2.72838e-07
-9.75775e-08
-1.13041e-07
-2.71832e-08
-2.03901e-08
-2.15873e-10
6.01694e-09
-6.41673e-07
-7.05722e-09
1.41146e-08
6.67566e-09
9.07884e-09
-4.18229e-09
2.99117e-09
2.86058e-09
1.24886e-08
1.79558
1.85522
1.90603e-10
4.15828e-10
4.99926e-21
3.15817e-21
1.06024e-17
4.10404e-18
1.65146e-18
1.51328e-18
6.16867e-19
5.30955e-19
-1.49245e-35
2.1955e-19
5.07108e-10
1.50918e-10
2.25348e-09
-3.20706e-10
2.71275e-32
6.1364e-08
-3.04821e-10
-4.3472e-10
4.35237e-25
3.95587e-25
1.77841e-28
1.91069e-33
4.33957e-20
3.2414e-20
-4.50657e-22
8.31788e-22
-1.49078e-07
-1.82787e-07
-9.05512e-08
6.54219e-13
-4.14313e-14
-5.66918e-14
-4.44347e-14
-1.83233e-14
-1.02656e-14
-1.19693e-29
1.43637e-28
-7.80429e-21
-8.65261e-21
-6.69895e-11
7.04559e-10
4.80174e-10
5.78394e-10
-1.41604e-09
-6.53966e-11
-5.78607e-09
-6.82991e-11
0.0910084
-5.39143e-16
5.48218e-16
7.63826e-15
6.92479e-16
0.00582405
0.0160535
-8.73861e-10
-5.43332e-10
-1.6269e-10
-1.3445e-10
-5.71213e-10
-8.32939e-11
6.43385e-12
2.95572e-11
-1.29471e-11
4.76232e-11
1.95482e-11
1.95022e-11
5.79505e-11
1.61682e-11
2.28813e-12
-9.70631e-14
1.05023e-11
-2.20794e-12
3.52326e-12
-3.76354e-12
-2.96038e-12
-4.18523e-12
-1.4579e-12
-1.15494e-12
-1.50456e-13
1.819e-14
-7.81678e-12
7.53094e-14
8.75534e-14
1.42033e-13
8.56892e-14
2.47133e-14
1.48875e-14
7.49417e-14
5.19028e-15
-2.70071e-15
-0.00190133
-0.000940889
3.27221e-12
1.89716e-12
-2.5865e-12
-2.46814e-12
3.75318e-14
7.51195e-09
-1.63986e-09
3.52719e-10
-9.28284e-19
-5.09928e-18
1.71266e-33
1.61242e-32
3.60519e-07
3.87823e-07
4.36104e-08
2.20219e-08
2.12933e-08
1.02583e-08
5.84326e-24
4.30963e-23
1.77257e-19
4.13967e-19
4.72392e-21
7.9597e-22
4.49048e-08
5.2154e-20
-1.40134e-22
1.46791e-21
8.64491e-21
6.98067e-21
4.93843e-20
7.40714e-21
2.94665e-07
2.98325e-28
9.48228e-28
5.38925e-14
2.478e-10
1.52858e-22
-3.22182e-09
7.94718e-08
4.94062e-20
6.96654e-08
2.1091e-08
5.53461e-18
-1.36629e-16
0.002133
0.0078913
0.0305075
0.0165118
0.00352631
0.00847488
2.35483e-14
5.41173e-15
0.288285
6.89136e-14
2.27431e-14
1.93538e-13
8.00618e-14
5.25295e-13
2.57024e-13
1.38585e-12
7.66969e-13
-3.1426e-12
-4.15972e-11
-6.96385e-11
-1.74686e-10
-2.04299e-10
-2.47116e-10
-2.83539e-10
5.6097e-10
1.432e-09
6.0578e-09
8.2564e-09
1.57163e-08
1.69147e-08
5.75425e-09
-1.93285e-08
-1.75201e-07
-2.77879e-07
-7.01938e-07
-8.15044e-07
1.77159e-08
2.5704e-11
-1.22411e-06
-9.93341e-07
-1.20383e-06
-8.94775e-07
-3.33384e-07
4.35801e-06
8.04444e-06
8.89953e-07
3.54016e-12
2.15499e-12
8.67137e-12
5.77243e-12
2.01032e-11
1.49173e-11
4.46489e-11
1.01597e-19
7.03899e-10
3.16732e-25
4.93001e-28
3.81106e-18
-1.58632e-34
-2.10883e-34
1.61128e-21
4.62753e-21
8.71681e-21
2.78387e-21
6.03341e-26
6.7532e-27
5.45436e-32
2.29741e-21
-1.09943e-21
-2.36399e-20
-2.57625e-20
-3.36044e-21
-2.25895e-20
2.59827e-05
3.30188e-05
1.59594e-17
5.36423e-17
-2.8079e-21
1.39486e-27
2.91255e-28
-4.20555e-21
1.03784e-13
3.20494e-13
1.77038
2.10896
1.30493e-09
-1.59424e-23
1.60365e-21
0.147356
0.0269387
0.0147536
-3.20117e-05
-1.78917e-05
7.86114e-16
6.01287e-16
1.33625
3.2635e-20
-2.4142e-08
1.23765e-06
4.83425e-07
1.7811e-12
3.01864e-12
1.01686e-08
3.74031e-11
9.6426e-11
-5.5863e-05
4.34939e-05
-3.95933e-32
1.19983
1.27024
1.85526
5.454e-12
-5.60187e-12
-4.34633e-12
2.28614e-21
3.10501e-21
-2.59063e-15
-0.000263883
-0.000142314
-0.000463587
-0.000226367
2.74083e-31
3.07098e-13
6.7866e-06