/*--------------------------------*- C++ -*----------------------------------*\
  =========                 |
  \\      /  F ield         | OpenFOAM: The Open Source CFD Toolbox
   \\    /   O peration     | Website:  https://openfoam.org
    \\  /    A nd           | Version:  6
     \\/     M anipulation  |
\*---------------------------------------------------------------------------*/
FoamFile
{
    version     2.0;
    format      ascii;
    class       volScalarField;
    location    "86400";
    object      Cg0;
}
// * * * * * * * * * * * * * * * * * * * * * * * * * * * * * * * * * * * * * //

dimensions      [1 -3 0 0 0 0 0];

internalField   nonuniform List<scalar> 
184
(
4.34187e-10
4.34187e-10
4.34001e-10
4.33902e-10
4.34089e-10
4.34174e-10
4.34209e-10
4.3448e-10
4.43409e-10
6.08926e-10
2.33008e-09
5.32853e-09
5.12316e-09
1.15552e-08
9.56565e-08
6.8846e-07
5.45655e-06
0.00166408
0.00612997
0.0127584
0.021711
0.0329257
0.0461251
0.0608689
0.0766313
0.0928719
0.109094
0.124609
0.108501
0.0931839
0.0790849
0.0663002
0.0548644
0.0447612
0.0359349
0.0283021
0.0217633
0.0162067
0.011521
0.00759508
0.00432363
0.0016128
1.66531e-05
3.42977e-06
1.14297e-06
4.25621e-07
1.74019e-07
6.32048e-08
2.50164e-08
9.99185e-09
4.03783e-09
5.41447e-09
5.27705e-09
4.42691e-09
4.46369e-09
5.02538e-09
5.36341e-09
4.95724e-09
5.31818e-09
4.54844e-09
3.88603e-09
3.3185e-09
2.83468e-09
2.42428e-09
2.07783e-09
1.78674e-09
1.54323e-09
1.3404e-09
1.17216e-09
1.03315e-09
9.18756e-10
8.24964e-10
7.48348e-10
6.85984e-10
6.35399e-10
5.94508e-10
5.61561e-10
5.35102e-10
5.13919e-10
4.97014e-10
4.83563e-10
4.72892e-10
4.64451e-10
4.57792e-10
4.52555e-10
4.48446e-10
4.45231e-10
4.42723e-10
4.4077e-10
4.39254e-10
4.3808e-10
4.37173e-10
4.36474e-10
4.35936e-10
4.35523e-10
4.35207e-10
4.34966e-10
4.34782e-10
4.34642e-10
4.34535e-10
4.34455e-10
4.34393e-10
4.34347e-10
4.34313e-10
4.34286e-10
4.34267e-10
4.34252e-10
4.34241e-10
4.34232e-10
4.34226e-10
4.34221e-10
4.34217e-10
4.34215e-10
4.34213e-10
4.34211e-10
4.3421e-10
4.34209e-10
4.34208e-10
4.34207e-10
4.34207e-10
4.34206e-10
4.34206e-10
4.34205e-10
4.34205e-10
4.34205e-10
4.34205e-10
4.34204e-10
4.34204e-10
4.34204e-10
4.34203e-10
4.34203e-10
4.34203e-10
4.34203e-10
4.34203e-10
4.34202e-10
4.34202e-10
4.34202e-10
4.34202e-10
4.34202e-10
4.34201e-10
4.34201e-10
4.34201e-10
4.34201e-10
4.342e-10
4.342e-10
4.342e-10
4.342e-10
4.342e-10
4.34199e-10
4.34199e-10
4.34199e-10
4.34199e-10
4.34199e-10
4.34198e-10
4.34198e-10
4.34198e-10
4.34198e-10
4.34197e-10
4.34197e-10
4.34197e-10
4.34197e-10
4.34196e-10
4.34196e-10
4.34196e-10
4.34195e-10
4.34195e-10
4.34195e-10
4.34194e-10
4.34194e-10
4.34194e-10
4.34193e-10
4.34193e-10
4.34192e-10
4.34192e-10
4.34191e-10
4.34191e-10
4.34191e-10
4.3419e-10
4.3419e-10
4.34189e-10
4.34189e-10
4.34188e-10
4.34188e-10
4.34187e-10
)
;

boundaryField
{
    bc0
    {
        type            zeroGradient;
    }
    bc1
    {
        type            zeroGradient;
    }
    bc2
    {
        type            zeroGradient;
    }
    bc3
    {
        type            zeroGradient;
    }
    top
    {
        type            zeroGradient;
    }
    bottom
    {
        type            zeroGradient;
    }
}


// ************************************************************************* //
