/*--------------------------------*- C++ -*----------------------------------*\
  =========                 |
  \\      /  F ield         | OpenFOAM: The Open Source CFD Toolbox
   \\    /   O peration     | Website:  https://openfoam.org
    \\  /    A nd           | Version:  6
     \\/     M anipulation  |
\*---------------------------------------------------------------------------*/
FoamFile
{
    version     2.0;
    format      ascii;
    class       volScalarField;
    location    "86400";
    object      Cg1;
}
// * * * * * * * * * * * * * * * * * * * * * * * * * * * * * * * * * * * * * //

dimensions      [1 -3 0 0 0 0 0];

internalField   nonuniform List<scalar> 
184
(
0.000874926
0.000874926
0.000874571
0.000874638
0.000875058
0.000875218
0.000875318
0.000878107
0.000929259
0.00134892
0.00312363
0.00768086
0.0160657
0.028492
0.0444813
0.0632202
0.08388
0.0925272
0.0953464
0.097576
0.0993011
0.100544
0.101371
0.101849
0.102057
0.102077
0.101985
0.101751
0.104503
0.106995
0.109306
0.111424
0.113346
0.115076
0.116623
0.118009
0.119226
0.120314
0.121276
0.122123
0.122882
0.123547
0.121594
0.109216
0.097882
0.0875704
0.0782069
0.0697218
0.0620492
0.0551269
0.0488957
0.0432992
0.0382841
0.0337999
0.0297993
0.0262377
0.0230737
0.0202688
0.0177876
0.015597
0.0136672
0.0119703
0.0104814
0.00917749
0.00803786
0.00704376
0.00617828
0.00542624
0.00477401
0.00420942
0.00372162
0.00330096
0.00293888
0.00262781
0.00236104
0.00213271
0.00193763
0.00177127
0.00162967
0.00150936
0.00140732
0.00132095
0.00124797
0.00118642
0.00113459
0.00109104
0.0010545
0.00102391
0.000998326
0.000976979
0.000959194
0.000944401
0.000932118
0.000921936
0.000913509
0.000906546
0.000900802
0.000896071
0.00089218
0.000888986
0.000886368
0.000884224
0.000882472
0.000881043
0.000879878
0.000878931
0.000878161
0.000877536
0.000877031
0.000876621
0.000876291
0.000876024
0.00087581
0.000875637
0.000875498
0.000875387
0.000875298
0.000875226
0.000875169
0.000875124
0.000875087
0.000875058
0.000875035
0.000875017
0.000875002
0.00087499
0.000874981
0.000874974
0.000874968
0.000874963
0.000874959
0.000874956
0.000874954
0.000874952
0.00087495
0.000874949
0.000874948
0.000874947
0.000874946
0.000874945
0.000874944
0.000874944
0.000874943
0.000874943
0.000874942
0.000874942
0.000874941
0.000874941
0.000874941
0.00087494
0.00087494
0.000874939
0.000874939
0.000874939
0.000874938
0.000874938
0.000874938
0.000874937
0.000874937
0.000874936
0.000874936
0.000874935
0.000874935
0.000874934
0.000874934
0.000874934
0.000874933
0.000874933
0.000874932
0.000874932
0.000874931
0.000874931
0.00087493
0.00087493
0.000874929
0.000874928
0.000874928
0.000874927
0.000874927
0.000874926
0.000874926
0.000874925
0.000874925
0.000874925
)
;

boundaryField
{
    bc0
    {
        type            zeroGradient;
    }
    bc1
    {
        type            zeroGradient;
    }
    bc2
    {
        type            zeroGradient;
    }
    bc3
    {
        type            zeroGradient;
    }
    top
    {
        type            zeroGradient;
    }
    bottom
    {
        type            zeroGradient;
    }
}


// ************************************************************************* //
