/*--------------------------------*- C++ -*----------------------------------*\
  =========                 |
  \\      /  F ield         | OpenFOAM: The Open Source CFD Toolbox
   \\    /   O peration     | Website:  https://openfoam.org
    \\  /    A nd           | Version:  6
     \\/     M anipulation  |
\*---------------------------------------------------------------------------*/
FoamFile
{
    version     2.0;
    format      ascii;
    class       volScalarField;
    location    "86400";
    object      Cg3;
}
// * * * * * * * * * * * * * * * * * * * * * * * * * * * * * * * * * * * * * //

dimensions      [1 -3 0 0 0 0 0];

internalField   nonuniform List<scalar> 
184
(
0.199841
0.199841
0.199803
0.199942
0.200004
0.199913
0.199268
0.195448
0.185289
0.168911
0.148258
0.125125
0.100796
0.0761677
0.051838
0.0281526
0.00522879
1.10185e-05
1.20571e-05
1.95104e-05
1.16923e-05
1.9467e-05
1.62757e-05
1.27435e-05
9.34766e-06
6.09529e-06
2.98151e-06
3.10008e-75
3.36743e-06
6.57633e-06
9.62944e-06
1.25121e-05
1.51608e-05
1.74085e-05
1.88104e-05
7.74264e-06
1.8529e-05
1.29268e-05
1.0256e-05
1.49456e-05
9.32123e-06
8.89806e-06
0.0026163
0.0183281
0.0330586
0.0467909
0.059579
0.0714735
0.0825219
0.0927691
0.102258
0.11103
0.119127
0.126588
0.133451
0.139755
0.145535
0.150827
0.155664
0.160078
0.1641
0.167759
0.171082
0.174097
0.176827
0.179295
0.181524
0.183533
0.185341
0.186967
0.188425
0.189732
0.190902
0.191947
0.192879
0.19371
0.194448
0.195104
0.195686
0.196202
0.196657
0.19706
0.197414
0.197727
0.198001
0.198242
0.198454
0.198639
0.1988
0.198942
0.199065
0.199172
0.199265
0.199346
0.199416
0.199476
0.199528
0.199574
0.199613
0.199646
0.199675
0.1997
0.199721
0.199739
0.199754
0.199768
0.199779
0.199788
0.199796
0.199803
0.199809
0.199814
0.199818
0.199822
0.199825
0.199827
0.19983
0.199831
0.199833
0.199834
0.199835
0.199836
0.199837
0.199837
0.199838
0.199838
0.199839
0.199839
0.199839
0.199839
0.199839
0.19984
0.19984
0.19984
0.19984
0.19984
0.19984
0.19984
0.19984
0.19984
0.19984
0.19984
0.19984
0.19984
0.19984
0.19984
0.19984
0.19984
0.19984
0.19984
0.19984
0.19984
0.19984
0.19984
0.19984
0.19984
0.19984
0.19984
0.19984
0.19984
0.19984
0.19984
0.19984
0.19984
0.19984
0.19984
0.19984
0.19984
0.19984
0.19984
0.19984
0.19984
0.19984
0.19984
0.19984
0.19984
0.19984
0.19984
0.19984
0.19984
0.19984
0.19984
0.19984
0.19984
)
;

boundaryField
{
    bc0
    {
        type            zeroGradient;
    }
    bc1
    {
        type            zeroGradient;
    }
    bc2
    {
        type            zeroGradient;
    }
    bc3
    {
        type            zeroGradient;
    }
    top
    {
        type            zeroGradient;
    }
    bottom
    {
        type            zeroGradient;
    }
}


// ************************************************************************* //
