/*--------------------------------*- C++ -*----------------------------------*\
  =========                 |
  \\      /  F ield         | OpenFOAM: The Open Source CFD Toolbox
   \\    /   O peration     | Website:  https://openfoam.org
    \\  /    A nd           | Version:  6
     \\/     M anipulation  |
\*---------------------------------------------------------------------------*/
FoamFile
{
    version     2.0;
    format      ascii;
    class       volScalarField;
    location    "86400";
    object      Cw0;
}
// * * * * * * * * * * * * * * * * * * * * * * * * * * * * * * * * * * * * * //

dimensions      [0 -3 0 0 1 0 0];

internalField   nonuniform List<scalar> 
184
(
55.3416
55.3416
55.3416
55.3416
55.3416
55.3416
55.3416
55.3416
55.3416
55.3416
55.3416
55.3416
55.3416
55.3416
55.3416
55.3417
55.3424
55.3437
55.3443
55.3447
55.3451
55.3455
55.3459
55.3462
55.3462
55.346
55.3451
55.3416
55.3455
55.3469
55.3479
55.3486
55.349
55.3492
55.3494
55.3496
55.3497
55.3498
55.3499
55.3499
55.3496
55.3485
55.3456
55.3432
55.3422
55.3419
55.3417
55.3417
55.3416
55.3416
55.3416
55.3416
55.3416
55.3416
55.3416
55.3416
55.3416
55.3416
55.3416
55.3416
55.3416
55.3416
55.3416
55.3416
55.3416
55.3416
55.3416
55.3416
55.3416
55.3416
55.3416
55.3416
55.3416
55.3416
55.3416
55.3416
55.3416
55.3416
55.3416
55.3416
55.3416
55.3416
55.3416
55.3416
55.3416
55.3416
55.3416
55.3416
55.3416
55.3416
55.3416
55.3416
55.3416
55.3416
55.3416
55.3416
55.3416
55.3416
55.3416
55.3416
55.3416
55.3416
55.3416
55.3416
55.3416
55.3416
55.3416
55.3416
55.3416
55.3416
55.3416
55.3416
55.3416
55.3416
55.3416
55.3416
55.3416
55.3416
55.3416
55.3416
55.3416
55.3416
55.3416
55.3416
55.3416
55.3416
55.3416
55.3416
55.3416
55.3416
55.3416
55.3416
55.3416
55.3416
55.3416
55.3416
55.3416
55.3416
55.3416
55.3416
55.3416
55.3416
55.3416
55.3416
55.3416
55.3416
55.3416
55.3416
55.3416
55.3416
55.3416
55.3416
55.3416
55.3416
55.3416
55.3416
55.3416
55.3416
55.3416
55.3416
55.3416
55.3416
55.3416
55.3416
55.3416
55.3416
55.3416
55.3416
55.3416
55.3416
55.3416
55.3416
55.3416
55.3416
55.3416
55.3416
55.3416
55.3416
55.3416
55.3416
55.3416
55.3416
55.3416
55.3416
)
;

boundaryField
{
    bc0
    {
        type            zeroGradient;
    }
    bc1
    {
        type            zeroGradient;
    }
    bc2
    {
        type            zeroGradient;
    }
    bc3
    {
        type            zeroGradient;
    }
    top
    {
        type            zeroGradient;
    }
    bottom
    {
        type            zeroGradient;
    }
}


// ************************************************************************* //
