/*--------------------------------*- C++ -*----------------------------------*\
  =========                 |
  \\      /  F ield         | OpenFOAM: The Open Source CFD Toolbox
   \\    /   O peration     | Website:  https://openfoam.org
    \\  /    A nd           | Version:  6
     \\/     M anipulation  |
\*---------------------------------------------------------------------------*/
FoamFile
{
    version     2.0;
    format      ascii;
    class       volScalarField;
    location    "86400";
    object      Cw1;
}
// * * * * * * * * * * * * * * * * * * * * * * * * * * * * * * * * * * * * * //

dimensions      [0 -3 0 0 1 0 0];

internalField   nonuniform List<scalar> 
184
(
0.000431363
0.000431363
0.000431132
0.000430924
0.000431095
0.00043118
0.000431215
0.000431234
0.000431356
0.000431972
0.000432841
0.000433524
0.000434286
0.000435293
0.00043648
0.000437933
0.000439421
0.000440116
0.000440284
0.000440495
0.000440574
0.000440711
0.000440722
0.000440801
0.000440783
0.000443062
0.000715282
0.0166013
0.000672069
0.000442623
0.000441299
0.000441466
0.000441627
0.000441721
0.000441868
0.000441939
0.000442059
0.00044211
0.000442209
0.000442244
0.000442324
0.000442341
0.000442211
0.000441291
0.000440485
0.000439704
0.000439033
0.000438384
0.000437834
0.000437299
0.000436853
0.000436415
0.000436055
0.000435699
0.000435412
0.000435122
0.000434894
0.000434659
0.000434478
0.000434286
0.000434141
0.000433983
0.000433865
0.000433731
0.000433633
0.000433516
0.00043343
0.000433323
0.000433243
0.000433141
0.000433063
0.000432962
0.000432882
0.00043278
0.000432697
0.000432592
0.000432507
0.000432403
0.000432319
0.000432217
0.000432137
0.000432043
0.000431972
0.000431888
0.000431828
0.000431757
0.000431709
0.000431651
0.000431614
0.000431569
0.000431539
0.000431513
0.000431482
0.000431468
0.000431444
0.000431436
0.000431417
0.000431414
0.000431399
0.000431398
0.000431386
0.000431387
0.000431378
0.000431378
0.000431375
0.000431373
0.000431371
0.000431369
0.000431368
0.000431367
0.000431365
0.000431362
0.000431385
0.000431346
0.000431369
0.000431366
0.000431365
0.000431364
0.000431364
0.000431364
0.000431364
0.000431364
0.000431364
0.000431364
0.000431364
0.000431364
0.000431364
0.000431364
0.000431364
0.000431364
0.000431363
0.000431361
0.000431375
0.000431352
0.000431366
0.000431364
0.000431364
0.000431364
0.000431364
0.000431364
0.000431364
0.000431364
0.000431364
0.000431364
0.000431364
0.000431364
0.000431364
0.000431364
0.000431364
0.000431364
0.000431364
0.000431363
0.000431362
0.000431371
0.000431356
0.000431365
0.000431364
0.000431364
0.000431364
0.000431364
0.000431364
0.000431364
0.000431364
0.000431364
0.000431364
0.000431364
0.000431364
0.000431364
0.000431364
0.000431364
0.000431364
0.000431363
0.000431362
0.000431368
0.000431359
0.000431365
0.000431364
0.000431364
0.000431364
0.000431364
0.000431364
0.000431364
0.000431364
0.000431363
)
;

boundaryField
{
    bc0
    {
        type            zeroGradient;
    }
    bc1
    {
        type            zeroGradient;
    }
    bc2
    {
        type            zeroGradient;
    }
    bc3
    {
        type            zeroGradient;
    }
    top
    {
        type            zeroGradient;
    }
    bottom
    {
        type            zeroGradient;
    }
}


// ************************************************************************* //
