/*--------------------------------*- C++ -*----------------------------------*\
  =========                 |
  \\      /  F ield         | OpenFOAM: The Open Source CFD Toolbox
   \\    /   O peration     | Website:  https://openfoam.org
    \\  /    A nd           | Version:  6
     \\/     M anipulation  |
\*---------------------------------------------------------------------------*/
FoamFile
{
    version     2.0;
    format      ascii;
    class       volScalarField;
    location    "86400";
    object      Cw2;
}
// * * * * * * * * * * * * * * * * * * * * * * * * * * * * * * * * * * * * * //

dimensions      [0 -3 0 0 1 0 0];

internalField   nonuniform List<scalar> 
184
(
0.0018661
0.0018661
0.00186523
0.001865
0.00186571
0.00186574
0.00186421
0.0018547
0.00183246
0.00182023
0.00188943
0.00214061
0.00264834
0.00342969
0.00445353
0.00566544
0.00700465
0.00758337
0.00777592
0.0079269
0.00804327
0.0081278
0.00818437
0.00821808
0.00823357
0.00824343
0.00905958
0.0567297
0.00910046
0.00857621
0.008728
0.00887144
0.0090018
0.00911913
0.00922448
0.00931871
0.0094018
0.00947586
0.00954139
0.00959844
0.00964797
0.00968693
0.00955164
0.00876243
0.00803423
0.00737002
0.00676699
0.00622087
0.0057278
0.0052835
0.00488432
0.00452631
0.0042062
0.00392042
0.00366608
0.00344005
0.00323979
0.00306259
0.00290632
0.00276863
0.00264774
0.00254167
0.00244895
0.00236793
0.00229743
0.00223607
0.0021829
0.0021368
0.00209704
0.00206269
0.00203319
0.0020078
0.00198609
0.00196745
0.00195159
0.00193802
0.00192653
0.00191671
0.00190845
0.00190141
0.00189551
0.0018905
0.00188633
0.00188279
0.00187987
0.0018774
0.00187538
0.00187366
0.00187228
0.0018711
0.00187015
0.00186938
0.00186872
0.00186822
0.00186777
0.00186745
0.00186715
0.00186695
0.00186675
0.00186662
0.00186649
0.00186642
0.00186633
0.00186628
0.00186623
0.0018662
0.00186617
0.00186615
0.00186614
0.00186612
0.00186611
0.0018661
0.00186616
0.00186604
0.00186611
0.0018661
0.0018661
0.0018661
0.0018661
0.0018661
0.0018661
0.0018661
0.0018661
0.0018661
0.0018661
0.0018661
0.0018661
0.0018661
0.0018661
0.0018661
0.0018661
0.00186609
0.00186613
0.00186606
0.00186611
0.0018661
0.0018661
0.0018661
0.0018661
0.0018661
0.0018661
0.0018661
0.0018661
0.0018661
0.0018661
0.0018661
0.0018661
0.0018661
0.0018661
0.0018661
0.0018661
0.0018661
0.00186609
0.00186612
0.00186608
0.0018661
0.0018661
0.0018661
0.0018661
0.0018661
0.0018661
0.0018661
0.0018661
0.0018661
0.0018661
0.0018661
0.0018661
0.0018661
0.0018661
0.0018661
0.0018661
0.0018661
0.00186609
0.00186611
0.00186608
0.0018661
0.0018661
0.0018661
0.0018661
0.0018661
0.0018661
0.0018661
0.0018661
0.0018661
)
;

boundaryField
{
    bc0
    {
        type            zeroGradient;
    }
    bc1
    {
        type            zeroGradient;
    }
    bc2
    {
        type            zeroGradient;
    }
    bc3
    {
        type            zeroGradient;
    }
    top
    {
        type            zeroGradient;
    }
    bottom
    {
        type            zeroGradient;
    }
}


// ************************************************************************* //
