/*--------------------------------*- C++ -*----------------------------------*\
  =========                 |
  \\      /  F ield         | OpenFOAM: The Open Source CFD Toolbox
   \\    /   O peration     | Website:  https://openfoam.org
    \\  /    A nd           | Version:  6
     \\/     M anipulation  |
\*---------------------------------------------------------------------------*/
FoamFile
{
    version     2.0;
    format      ascii;
    class       volScalarField;
    location    "86400";
    object      Cw3;
}
// * * * * * * * * * * * * * * * * * * * * * * * * * * * * * * * * * * * * * //

dimensions      [0 -3 0 0 1 0 0];

internalField   nonuniform List<scalar> 
184
(
0.000165027
0.000165027
0.000164938
0.000164858
0.000164923
0.000164956
0.000164969
0.000164974
0.000164979
0.000164987
0.000164995
0.000165002
0.00016501
0.000165023
0.000165015
0.000165037
0.000165023
0.000165043
0.000165027
0.000165045
0.000165027
0.000165045
0.000165025
0.000165042
0.000165007
0.000162749
-0.000112412
-0.0160257
-6.87805e-05
0.000163546
0.000165013
0.000165025
0.000165033
0.00016502
0.000165033
0.000165021
0.000165033
0.000165021
0.000165032
0.000165022
0.000165032
0.000165022
0.000165032
0.000165023
0.000165031
0.000165023
0.000165031
0.000165023
0.000165031
0.000165023
0.000165031
0.000165023
0.00016503
0.000165024
0.00016503
0.000165024
0.00016503
0.000165024
0.00016503
0.000165024
0.00016503
0.000165024
0.00016503
0.000165024
0.00016503
0.000165025
0.000165029
0.000165025
0.000165029
0.000165025
0.000165029
0.000165025
0.000165029
0.000165025
0.000165029
0.000165025
0.000165029
0.000165025
0.000165029
0.000165025
0.000165029
0.000165025
0.000165029
0.000165025
0.000165029
0.000165025
0.000165029
0.000165026
0.000165029
0.000165026
0.000165027
0.000165028
0.000165026
0.000165028
0.000165026
0.000165028
0.000165026
0.000165028
0.000165026
0.000165028
0.000165026
0.000165028
0.000165026
0.000165027
0.000165027
0.000165027
0.000165027
0.000165027
0.000165027
0.000165027
0.000165027
0.000165025
0.000165034
0.00016502
0.000165028
0.000165027
0.000165027
0.000165027
0.000165027
0.000165027
0.000165027
0.000165027
0.000165027
0.000165027
0.000165027
0.000165027
0.000165027
0.000165027
0.000165027
0.000165027
0.000165027
0.000165026
0.000165032
0.000165023
0.000165028
0.000165027
0.000165027
0.000165027
0.000165027
0.000165027
0.000165027
0.000165027
0.000165027
0.000165027
0.000165027
0.000165027
0.000165027
0.000165027
0.000165027
0.000165027
0.000165027
0.000165027
0.000165026
0.00016503
0.000165024
0.000165028
0.000165027
0.000165027
0.000165027
0.000165027
0.000165027
0.000165027
0.000165027
0.000165027
0.000165027
0.000165027
0.000165027
0.000165027
0.000165027
0.000165027
0.000165027
0.000165027
0.000165027
0.000165029
0.000165025
0.000165028
0.000165027
0.000165027
0.000165027
0.000165027
0.000165027
0.000165027
0.000165027
0.000165027
)
;

boundaryField
{
    bc0
    {
        type            zeroGradient;
    }
    bc1
    {
        type            zeroGradient;
    }
    bc2
    {
        type            zeroGradient;
    }
    bc3
    {
        type            zeroGradient;
    }
    top
    {
        type            zeroGradient;
    }
    bottom
    {
        type            zeroGradient;
    }
}


// ************************************************************************* //
