/*--------------------------------*- C++ -*----------------------------------*\
  =========                 |
  \\      /  F ield         | OpenFOAM: The Open Source CFD Toolbox
   \\    /   O peration     | Website:  https://openfoam.org
    \\  /    A nd           | Version:  6
     \\/     M anipulation  |
\*---------------------------------------------------------------------------*/
FoamFile
{
    version     2.0;
    format      ascii;
    class       volScalarField;
    location    "86400";
    object      Cw4;
}
// * * * * * * * * * * * * * * * * * * * * * * * * * * * * * * * * * * * * * //

dimensions      [0 -3 0 0 1 0 0];

internalField   nonuniform List<scalar> 
184
(
7.80344e-11
7.80344e-11
7.79939e-11
7.79817e-11
7.80155e-11
7.80309e-11
7.80374e-11
7.80871e-11
7.96924e-11
1.09435e-10
4.18705e-10
9.57329e-10
9.20253e-10
2.07532e-09
1.71783e-08
1.23614e-07
9.78808e-07
0.000298749
0.00110071
0.00229071
0.00389775
0.00591108
0.00828142
0.0109303
0.0137637
0.0166846
0.0196029
0.0223426
0.0194973
0.016743
0.0142082
0.0119105
0.00985574
0.00804072
0.00645525
0.00508423
0.00390974
0.00291158
0.00206981
0.00136441
0.000776524
0.000289448
2.98528e-06
6.15673e-07
2.05287e-07
7.64622e-08
3.12655e-08
1.13564e-08
4.49497e-09
1.79538e-09
7.2555e-10
9.72933e-10
9.48253e-10
7.95501e-10
8.02121e-10
9.03068e-10
9.63823e-10
8.90845e-10
9.55717e-10
8.17397e-10
6.98362e-10
5.96376e-10
5.09431e-10
4.35679e-10
3.7342e-10
3.21107e-10
2.77346e-10
2.40895e-10
2.10659e-10
1.85679e-10
1.6512e-10
1.48264e-10
1.34495e-10
1.23287e-10
1.14196e-10
1.06847e-10
1.00926e-10
9.61704e-11
9.23635e-11
8.93253e-11
8.69079e-11
8.49901e-11
8.34731e-11
8.22765e-11
8.13352e-11
8.05968e-11
8.00191e-11
7.95683e-11
7.92174e-11
7.89449e-11
7.87339e-11
7.85709e-11
7.84452e-11
7.83486e-11
7.82744e-11
7.82176e-11
7.81742e-11
7.81411e-11
7.8116e-11
7.80969e-11
7.80824e-11
7.80714e-11
7.80631e-11
7.80569e-11
7.80522e-11
7.80486e-11
7.80459e-11
7.80439e-11
7.80424e-11
7.80413e-11
7.80404e-11
7.80398e-11
7.80393e-11
7.80389e-11
7.80386e-11
7.80384e-11
7.80382e-11
7.80381e-11
7.80379e-11
7.80378e-11
7.80378e-11
7.80377e-11
7.80376e-11
7.80376e-11
7.80375e-11
7.80375e-11
7.80374e-11
7.80374e-11
7.80373e-11
7.80373e-11
7.80372e-11
7.80372e-11
7.80372e-11
7.80371e-11
7.80371e-11
7.8037e-11
7.8037e-11
7.8037e-11
7.80369e-11
7.80369e-11
7.80368e-11
7.80368e-11
7.80368e-11
7.80367e-11
7.80367e-11
7.80367e-11
7.80366e-11
7.80366e-11
7.80365e-11
7.80365e-11
7.80365e-11
7.80364e-11
7.80364e-11
7.80364e-11
7.80363e-11
7.80363e-11
7.80362e-11
7.80362e-11
7.80361e-11
7.80361e-11
7.8036e-11
7.8036e-11
7.80359e-11
7.80359e-11
7.80358e-11
7.80358e-11
7.80357e-11
7.80356e-11
7.80356e-11
7.80355e-11
7.80354e-11
7.80353e-11
7.80353e-11
7.80352e-11
7.80351e-11
7.8035e-11
7.80349e-11
7.80349e-11
7.80348e-11
7.80347e-11
7.80346e-11
7.80345e-11
7.80344e-11
7.80344e-11
)
;

boundaryField
{
    bc0
    {
        type            zeroGradient;
    }
    bc1
    {
        type            zeroGradient;
    }
    bc2
    {
        type            zeroGradient;
    }
    bc3
    {
        type            zeroGradient;
    }
    top
    {
        type            zeroGradient;
    }
    bottom
    {
        type            zeroGradient;
    }
}


// ************************************************************************* //
