/*--------------------------------*- C++ -*----------------------------------*\
  =========                 |
  \\      /  F ield         | OpenFOAM: The Open Source CFD Toolbox
   \\    /   O peration     | Website:  https://openfoam.org
    \\  /    A nd           | Version:  6
     \\/     M anipulation  |
\*---------------------------------------------------------------------------*/
FoamFile
{
    version     2.0;
    format      ascii;
    class       volScalarField;
    location    "86400";
    object      Cw5;
}
// * * * * * * * * * * * * * * * * * * * * * * * * * * * * * * * * * * * * * //

dimensions      [0 -3 0 0 1 0 0];

internalField   nonuniform List<scalar> 
184
(
0.000461667
0.000461667
0.00046142
0.000461216
0.000461401
0.000461493
0.00046153
0.000461643
0.000463464
0.000478117
0.000538895
0.000693882
0.000978638
0.0014005
0.00194319
0.002579
0.0032775
0.00357332
0.00366956
0.00374498
0.00380316
0.00384537
0.00387368
0.00389051
0.00389827
0.00390205
0.0041733
0.0200582
0.00421545
0.00406875
0.00414536
0.00421703
0.00428216
0.00434081
0.00439344
0.00444056
0.00448205
0.00451908
0.00455181
0.00458033
0.00460508
0.00462456
0.00455362
0.00413921
0.00375648
0.00340704
0.00308935
0.00280127
0.00254076
0.00230566
0.00209406
0.00190397
0.00173365
0.00158133
0.00144546
0.00132447
0.00121701
0.00112171
0.00103744
0.000963005
0.000897454
0.000839788
0.00078921
0.000744887
0.000706168
0.000672365
0.000642953
0.000617367
0.000595193
0.000575969
0.000559373
0.000545032
0.0005327
0.000522075
0.000512974
0.000505155
0.000498484
0.000492768
0.000487911
0.000483759
0.000480247
0.000477251
0.00047473
0.000472584
0.000470788
0.00046926
0.000467991
0.000466912
0.000466023
0.000465265
0.000464643
0.000464125
0.000463686
0.000463333
0.000463029
0.00046279
0.00046258
0.000462419
0.000462275
0.000462168
0.00046207
0.000462
0.000461932
0.000461884
0.000461843
0.000461809
0.000461782
0.00046176
0.000461742
0.000461727
0.000461714
0.000461702
0.000461718
0.000461674
0.000461691
0.000461685
0.000461681
0.000461678
0.000461676
0.000461674
0.000461673
0.000461672
0.000461671
0.00046167
0.00046167
0.00046167
0.000461669
0.000461669
0.000461669
0.000461669
0.000461668
0.000461665
0.00046168
0.000461657
0.000461671
0.000461669
0.000461668
0.000461668
0.000461668
0.000461668
0.000461668
0.000461668
0.000461668
0.000461668
0.000461668
0.000461668
0.000461668
0.000461668
0.000461668
0.000461668
0.000461668
0.000461668
0.000461666
0.000461675
0.000461661
0.00046167
0.000461668
0.000461668
0.000461668
0.000461668
0.000461668
0.000461668
0.000461668
0.000461668
0.000461668
0.000461668
0.000461668
0.000461668
0.000461667
0.000461667
0.000461667
0.000461667
0.000461666
0.000461672
0.000461663
0.000461669
0.000461667
0.000461667
0.000461667
0.000461667
0.000461667
0.000461667
0.000461667
0.000461667
)
;

boundaryField
{
    bc0
    {
        type            zeroGradient;
    }
    bc1
    {
        type            zeroGradient;
    }
    bc2
    {
        type            zeroGradient;
    }
    bc3
    {
        type            zeroGradient;
    }
    top
    {
        type            zeroGradient;
    }
    bottom
    {
        type            zeroGradient;
    }
}


// ************************************************************************* //
