/*--------------------------------*- C++ -*----------------------------------*\
  =========                 |
  \\      /  F ield         | OpenFOAM: The Open Source CFD Toolbox
   \\    /   O peration     | Website:  https://openfoam.org
    \\  /    A nd           | Version:  6
     \\/     M anipulation  |
\*---------------------------------------------------------------------------*/
FoamFile
{
    version     2.0;
    format      ascii;
    class       volScalarField;
    location    "86400";
    object      Cw7;
}
// * * * * * * * * * * * * * * * * * * * * * * * * * * * * * * * * * * * * * //

dimensions      [0 -3 0 0 1 0 0];

internalField   nonuniform List<scalar> 
184
(
0.000199422
0.000199422
0.000199315
0.000199218
0.000199297
0.000199337
0.000199352
0.000199359
0.000199365
0.000199374
0.000199383
0.000199392
0.000199401
0.000199418
0.000199408
0.000199434
0.000199417
0.000199441
0.000199422
0.000199444
0.000199422
0.000199443
0.00019942
0.00019944
0.000199416
0.000199436
0.000199422
0.000199922
0.000199419
0.00019943
0.000199412
0.00019942
0.000199429
0.000199414
0.000199429
0.000199415
0.000199429
0.000199415
0.000199429
0.000199416
0.000199428
0.000199416
0.000199428
0.000199417
0.000199427
0.000199417
0.000199427
0.000199417
0.000199427
0.000199418
0.000199427
0.000199418
0.000199426
0.000199418
0.000199426
0.000199418
0.000199426
0.000199419
0.000199426
0.000199419
0.000199425
0.000199419
0.000199425
0.000199419
0.000199425
0.000199419
0.000199425
0.000199419
0.000199425
0.000199419
0.000199425
0.00019942
0.000199425
0.00019942
0.000199425
0.00019942
0.000199424
0.00019942
0.000199424
0.00019942
0.000199424
0.00019942
0.000199424
0.00019942
0.000199424
0.00019942
0.000199424
0.00019942
0.000199424
0.000199421
0.000199422
0.000199424
0.00019942
0.000199424
0.000199421
0.000199424
0.000199421
0.000199424
0.000199421
0.000199424
0.000199421
0.000199424
0.000199421
0.000199422
0.000199422
0.000199422
0.000199422
0.000199422
0.000199422
0.000199422
0.000199422
0.00019942
0.000199431
0.000199413
0.000199424
0.000199423
0.000199422
0.000199422
0.000199422
0.000199422
0.000199422
0.000199422
0.000199422
0.000199422
0.000199422
0.000199422
0.000199422
0.000199422
0.000199422
0.000199422
0.000199422
0.000199421
0.000199428
0.000199417
0.000199423
0.000199422
0.000199422
0.000199422
0.000199422
0.000199422
0.000199422
0.000199422
0.000199422
0.000199422
0.000199422
0.000199422
0.000199422
0.000199422
0.000199422
0.000199422
0.000199422
0.000199422
0.000199421
0.000199425
0.000199419
0.000199423
0.000199422
0.000199422
0.000199422
0.000199422
0.000199422
0.000199422
0.000199422
0.000199422
0.000199422
0.000199422
0.000199422
0.000199422
0.000199422
0.000199422
0.000199422
0.000199422
0.000199421
0.000199424
0.00019942
0.000199423
0.000199422
0.000199422
0.000199422
0.000199422
0.000199422
0.000199422
0.000199422
0.000199422
)
;

boundaryField
{
    bc0
    {
        type            zeroGradient;
    }
    bc1
    {
        type            zeroGradient;
    }
    bc2
    {
        type            zeroGradient;
    }
    bc3
    {
        type            zeroGradient;
    }
    top
    {
        type            zeroGradient;
    }
    bottom
    {
        type            zeroGradient;
    }
}


// ************************************************************************* //
