/*--------------------------------*- C++ -*----------------------------------*\
  =========                 |
  \\      /  F ield         | OpenFOAM: The Open Source CFD Toolbox
   \\    /   O peration     | Website:  https://openfoam.org
    \\  /    A nd           | Version:  6
     \\/     M anipulation  |
\*---------------------------------------------------------------------------*/
FoamFile
{
    version     2.0;
    format      ascii;
    class       volScalarField;
    location    "86400";
    object      Cw8;
}
// * * * * * * * * * * * * * * * * * * * * * * * * * * * * * * * * * * * * * //

dimensions      [0 -3 0 0 1 0 0];

internalField   nonuniform List<scalar> 
184
(
0.00087567
0.00087567
0.000875632
0.000875543
0.000875476
0.000875577
0.000876287
0.000880481
0.000891559
0.000909004
0.000929567
0.000949731
0.000967004
0.000980221
0.000989258
0.000994498
0.000996032
0.000991277
0.000983487
0.000973693
0.000961924
0.000948278
0.000933007
0.000916498
0.000899211
0.000881621
0.000864135
0.000845573
0.000862064
0.000876013
0.000888829
0.000900446
0.000910824
0.000919978
0.000927955
0.000934828
0.000940682
0.000945609
0.000949698
0.000953007
0.000955528
0.000957069
0.000957
0.000954678
0.00095149
0.000947961
0.000944305
0.000940618
0.000936949
0.000933328
0.000929777
0.000926313
0.000922952
0.000919705
0.000916582
0.00091359
0.000910735
0.000908021
0.000905451
0.000903024
0.00090074
0.000898598
0.000896595
0.000894727
0.000892991
0.000891381
0.000889892
0.000888519
0.000887256
0.000886097
0.000885036
0.000884068
0.000883186
0.000882384
0.000881656
0.000880998
0.000880404
0.000879869
0.000879387
0.000878956
0.000878569
0.000878224
0.000877915
0.000877641
0.000877397
0.000877181
0.00087699
0.000876821
0.000876672
0.000876541
0.000876426
0.000876325
0.000876237
0.00087616
0.000876092
0.000876034
0.000875983
0.000875938
0.0008759
0.000875867
0.000875838
0.000875814
0.000875792
0.000875774
0.000875758
0.000875745
0.000875733
0.000875724
0.000875715
0.000875708
0.000875702
0.000875697
0.000875693
0.000875689
0.000875686
0.000875683
0.000875681
0.000875679
0.000875678
0.000875676
0.000875675
0.000875674
0.000875674
0.000875673
0.000875672
0.000875672
0.000875672
0.000875671
0.000875671
0.000875671
0.000875671
0.00087567
0.00087567
0.00087567
0.00087567
0.00087567
0.00087567
0.00087567
0.00087567
0.00087567
0.00087567
0.00087567
0.00087567
0.00087567
0.00087567
0.00087567
0.00087567
0.00087567
0.00087567
0.00087567
0.00087567
0.00087567
0.00087567
0.00087567
0.00087567
0.00087567
0.00087567
0.00087567
0.00087567
0.00087567
0.00087567
0.00087567
0.00087567
0.00087567
0.00087567
0.00087567
0.00087567
0.00087567
0.00087567
0.00087567
0.00087567
0.00087567
0.00087567
0.00087567
0.00087567
0.00087567
0.00087567
0.00087567
0.00087567
0.00087567
0.00087567
0.00087567
0.00087567
0.00087567
)
;

boundaryField
{
    bc0
    {
        type            zeroGradient;
    }
    bc1
    {
        type            zeroGradient;
    }
    bc2
    {
        type            zeroGradient;
    }
    bc3
    {
        type            zeroGradient;
    }
    top
    {
        type            zeroGradient;
    }
    bottom
    {
        type            zeroGradient;
    }
}


// ************************************************************************* //
