/*--------------------------------*- C++ -*----------------------------------*\
  =========                 |
  \\      /  F ield         | OpenFOAM: The Open Source CFD Toolbox
   \\    /   O peration     | Website:  https://openfoam.org
    \\  /    A nd           | Version:  6
     \\/     M anipulation  |
\*---------------------------------------------------------------------------*/
FoamFile
{
    version     2.0;
    format      ascii;
    class       volScalarField;
    location    "86400";
    object      hp;
}
// * * * * * * * * * * * * * * * * * * * * * * * * * * * * * * * * * * * * * //

dimensions      [0 1 0 0 0 0 0];

internalField   nonuniform List<scalar> 
184
(
0.02
0.010005
9.94154e-06
-0.00998392
-0.0199762
-0.0299662
-0.0399532
-0.0499362
-0.0599138
-0.0698845
-0.0798462
-0.0897967
-0.0997335
-0.109654
-0.119555
-0.129434
-0.13929
-0.14912
-0.158926
-0.168708
-0.178469
-0.188216
-0.197956
-0.207696
-0.217445
-0.227214
-0.237011
-0.246841
-0.256709
-0.266615
-0.276558
-0.286532
-0.296531
-0.306549
-0.31658
-0.32662
-0.336667
-0.346718
-0.35677
-0.366823
-0.376877
-0.386931
-0.396985
-0.407038
-0.417091
-0.427144
-0.437196
-0.447249
-0.457301
-0.467353
-0.477404
-0.487456
-0.497507
-0.507558
-0.517609
-0.527661
-0.537711
-0.547762
-0.557813
-0.567864
-0.577915
-0.587965
-0.598016
-0.608066
-0.618117
-0.628167
-0.638218
-0.648268
-0.658318
-0.668369
-0.678419
-0.688469
-0.69852
-0.70857
-0.71862
-0.72867
-0.738721
-0.748771
-0.758821
-0.768871
-0.778921
-0.788972
-0.799021
-0.809072
-0.819122
-0.829172
-0.839222
-0.849272
-0.859319
-0.869364
-0.879398
-0.889432
-0.899476
-0.909523
-0.919574
-0.929622
-0.939674
-0.949722
-0.959775
-0.969822
-0.979875
-0.98992
-0.999967
-1.00999
-1.02
-1.03
-1.04
-1.05
-1.06
-1.07
-1.08001
-1.09006
-1.10027
-1.11072
-1.12094
-1.13099
-1.141
-1.151
-1.161
-1.171
-1.181
-1.191
-1.201
-1.211
-1.221
-1.231
-1.241
-1.251
-1.261
-1.271
-1.281
-1.29103
-1.30122
-1.31178
-1.32197
-1.332
-1.342
-1.352
-1.362
-1.372
-1.382
-1.392
-1.402
-1.412
-1.422
-1.432
-1.442
-1.452
-1.462
-1.472
-1.482
-1.492
-1.50202
-1.51217
-1.52283
-1.53298
-1.543
-1.553
-1.563
-1.573
-1.583
-1.593
-1.603
-1.613
-1.623
-1.633
-1.643
-1.653
-1.663
-1.673
-1.683
-1.693
-1.70301
-1.71313
-1.72386
-1.73399
-1.744
-1.754
-1.764
-1.774
-1.784
-1.794
-1.804
-1.814
)
;

boundaryField
{
    bc0
    {
        type            fixedGradient;
        gradient        uniform -1;
    }
    bc1
    {
        type            zeroGradient;
    }
    bc2
    {
        type            zeroGradient;
    }
    bc3
    {
        type            zeroGradient;
    }
    top
    {
        type            zeroGradient;
    }
    bottom
    {
        type            zeroGradient;
    }
}


// ************************************************************************* //
