/*--------------------------------*- C++ -*----------------------------------*\
  =========                 |
  \\      /  F ield         | OpenFOAM: The Open Source CFD Toolbox
   \\    /   O peration     | Website:  https://openfoam.org
    \\  /    A nd           | Version:  6
     \\/     M anipulation  |
\*---------------------------------------------------------------------------*/
FoamFile
{
    version     2.0;
    format      ascii;
    class       surfaceScalarField;
    location    "86400";
    object      phiw;
}
// * * * * * * * * * * * * * * * * * * * * * * * * * * * * * * * * * * * * * //

dimensions      [0 3 -1 0 0 0 0];

internalField   nonuniform List<scalar> 
183
(
-5.79567e-07
-1.21854e-09
-1.1715e-09
-1.17231e-09
-1.17148e-09
-1.1684e-09
-1.16258e-09
-1.15353e-09
-1.14076e-09
-1.12374e-09
-1.10192e-09
-1.07469e-09
-1.0415e-09
-1.00181e-09
-9.55263e-10
-9.0166e-10
-8.41105e-10
-7.74047e-10
-7.01339e-10
-6.24263e-10
-5.44505e-10
-4.64094e-10
-3.85272e-10
-3.1033e-10
-2.41402e-10
-1.8026e-10
-1.28135e-10
-8.55976e-11
-5.253e-11
-2.81972e-11
-1.14056e-11
-8.19083e-13
5.92186e-12
9.41814e-12
1.08823e-11
1.10833e-11
1.05821e-11
9.75238e-12
8.81815e-12
7.89839e-12
7.04682e-12
6.28151e-12
5.60354e-12
5.00698e-12
4.48358e-12
4.02468e-12
3.62201e-12
3.26803e-12
2.95604e-12
2.68028e-12
2.43579e-12
2.2184e-12
2.02456e-12
1.85124e-12
1.6959e-12
1.55633e-12
1.43065e-12
1.31724e-12
1.21468e-12
1.12177e-12
1.03744e-12
9.6076e-13
8.90914e-13
8.27202e-13
7.68976e-13
7.15705e-13
6.66871e-13
6.22072e-13
5.80883e-13
5.43004e-13
5.08082e-13
4.75892e-13
4.46137e-13
4.18652e-13
3.93181e-13
3.6961e-13
3.47712e-13
3.27411e-13
3.08508e-13
2.90954e-13
2.74573e-13
2.59337e-13
2.45087e-13
2.31794e-13
2.19238e-13
2.07057e-13
1.93841e-13
1.76383e-13
1.50821e-13
1.2316e-13
1.16473e-13
1.28181e-13
1.36007e-13
1.35308e-13
1.30492e-13
1.24644e-13
1.18862e-13
1.13324e-13
1.07983e-13
1.02235e-13
9.3802e-14
7.66712e-14
4.58703e-14
1.72803e-14
4.39494e-15
8.22813e-16
1.81406e-16
5.70662e-16
4.06582e-15
2.36457e-14
1.01473e-13
2.80804e-13
3.89914e-13
2.63084e-13
8.88847e-14
1.87443e-14
2.80044e-15
3.19604e-16
2.92469e-17
2.21901e-18
1.43031e-19
7.97908e-21
4.31947e-22
9.14981e-22
1.74109e-20
3.03415e-19
4.6691e-18
6.18283e-17
6.79424e-16
5.86836e-15
3.6435e-14
1.37124e-13
2.07017e-13
1.29098e-13
3.2412e-14
4.78397e-15
4.89755e-16
3.79759e-17
2.3534e-18
1.20829e-19
5.27443e-21
1.97652e-22
3.80067e-24
-1.21088e-24
2.28743e-23
7.11519e-22
1.8325e-20
4.14211e-19
8.01727e-18
1.27964e-16
1.59038e-15
1.39647e-14
7.1032e-14
1.14461e-13
6.7233e-14
1.25963e-14
1.32856e-15
9.59234e-17
5.22158e-18
2.2686e-19
8.16721e-21
2.50097e-22
6.26e-24
2.34664e-25
2.00212e-24
4.78521e-23
1.71078e-21
5.3298e-20
1.41608e-18
3.08986e-17
5.21867e-16
6.15917e-15
4.08427e-14
6.88573e-14
3.88424e-14
5.61662e-15
4.44322e-16
2.3877e-17
9.65086e-19
3.11218e-20
8.32383e-22
1.88957e-23
1.75291e-25
)
;

boundaryField
{
    bc0
    {
        type            calculated;
        value           uniform 0;
    }
    bc1
    {
        type            calculated;
        value           uniform 0;
    }
    bc2
    {
        type            calculated;
        value           uniform 2.31482e-06;
    }
    bc3
    {
        type            calculated;
        value           uniform 0;
    }
    top
    {
        type            calculated;
        value           uniform 0;
    }
    bottom
    {
        type            calculated;
        value           uniform 0;
    }
}


// ************************************************************************* //
