/*--------------------------------*- C++ -*----------------------------------*\
  =========                 |
  \\      /  F ield         | OpenFOAM: The Open Source CFD Toolbox
   \\    /   O peration     | Website:  https://openfoam.org
    \\  /    A nd           | Version:  6
     \\/     M anipulation  |
\*---------------------------------------------------------------------------*/
FoamFile
{
    version     2.0;
    format      ascii;
    class       volVectorField;
    location    "86400";
    object      Uw;
}
// * * * * * * * * * * * * * * * * * * * * * * * * * * * * * * * * * * * * * //

dimensions      [0 1 -1 0 0 0 0];

internalField   nonuniform List<vector> 
184
(
(0 -1.44719e-06 0)
(0 -2.90393e-07 0)
(0 -1.19502e-09 0)
(0 -1.17191e-09 0)
(0 -1.1719e-09 0)
(0 -1.16994e-09 0)
(0 -1.16549e-09 0)
(0 -1.15806e-09 0)
(0 -1.14715e-09 0)
(0 -1.13225e-09 0)
(0 -1.11283e-09 0)
(0 -1.0883e-09 0)
(0 -1.05809e-09 0)
(0 -1.02165e-09 0)
(0 -9.78538e-10 0)
(0 -9.28461e-10 0)
(0 -8.71382e-10 0)
(0 -8.07576e-10 0)
(0 -7.37693e-10 0)
(0 -6.62801e-10 0)
(0 -5.84384e-10 0)
(0 -5.04299e-10 0)
(0 -4.24683e-10 0)
(0 -3.47801e-10 0)
(0 -2.75866e-10 0)
(0 -2.10831e-10 0)
(0 -1.54198e-10 0)
(0 -1.06866e-10 0)
(0 -6.90638e-11 0)
(0 -4.03636e-11 0)
(0 -1.98014e-11 0)
(0 -6.11232e-12 0)
(0 2.55139e-12 0)
(0 7.67e-12 0)
(0 1.01502e-11 0)
(0 1.09828e-11 0)
(0 1.08327e-11 0)
(0 1.01672e-11 0)
(0 9.28527e-12 0)
(0 8.35827e-12 0)
(0 7.4726e-12 0)
(0 6.66416e-12 0)
(0 5.94253e-12 0)
(0 5.30526e-12 0)
(0 4.74528e-12 0)
(0 4.25413e-12 0)
(0 3.82335e-12 0)
(0 3.44502e-12 0)
(0 3.11204e-12 0)
(0 2.81816e-12 0)
(0 2.55804e-12 0)
(0 2.3271e-12 0)
(0 2.12148e-12 0)
(0 1.9379e-12 0)
(0 1.77357e-12 0)
(0 1.62611e-12 0)
(0 1.49349e-12 0)
(0 1.37394e-12 0)
(0 1.26596e-12 0)
(0 1.16823e-12 0)
(0 1.07961e-12 0)
(0 9.99099e-13 0)
(0 9.25837e-13 0)
(0 8.59058e-13 0)
(0 7.98089e-13 0)
(0 7.4234e-13 0)
(0 6.91288e-13 0)
(0 6.44471e-13 0)
(0 6.01478e-13 0)
(0 5.61944e-13 0)
(0 5.25543e-13 0)
(0 4.91987e-13 0)
(0 4.61014e-13 0)
(0 4.32394e-13 0)
(0 4.05917e-13 0)
(0 3.81395e-13 0)
(0 3.58661e-13 0)
(0 3.37561e-13 0)
(0 3.17959e-13 0)
(0 2.99731e-13 0)
(0 2.82764e-13 0)
(0 2.66955e-13 0)
(0 2.52212e-13 0)
(0 2.3844e-13 0)
(0 2.25516e-13 0)
(0 2.13148e-13 0)
(0 2.00449e-13 0)
(0 1.85112e-13 0)
(0 1.63602e-13 0)
(0 1.36991e-13 0)
(0 1.19817e-13 0)
(0 1.22327e-13 0)
(0 1.32094e-13 0)
(0 1.35657e-13 0)
(0 1.329e-13 0)
(0 1.27568e-13 0)
(0 1.21753e-13 0)
(0 1.16093e-13 0)
(0 1.10654e-13 0)
(0 1.05109e-13 0)
(0 9.80183e-14 0)
(0 8.52366e-14 0)
(0 6.12707e-14 0)
(0 3.15753e-14 0)
(0 1.08376e-14 0)
(0 2.60888e-15 0)
(0 5.0211e-16 0)
(0 3.76034e-16 0)
(0 2.31824e-15 0)
(0 1.38557e-14 0)
(0 6.25595e-14 0)
(0 1.91138e-13 0)
(0 3.35359e-13 0)
(0 3.26499e-13 0)
(0 1.75985e-13 0)
(0 5.38145e-14 0)
(0 1.07723e-14 0)
(0 1.56002e-15 0)
(0 1.74425e-16 0)
(0 1.5733e-17 0)
(0 1.18102e-18 0)
(0 7.55051e-20 0)
(0 4.20551e-21 0)
(0 6.73464e-22 0)
(0 9.16293e-21 0)
(0 1.60413e-19 0)
(0 2.48626e-18 0)
(0 3.32487e-17 0)
(0 3.70626e-16 0)
(0 3.27389e-15 0)
(0 2.11517e-14 0)
(0 8.67797e-14 0)
(0 1.72071e-13 0)
(0 1.68057e-13 0)
(0 8.0755e-14 0)
(0 1.8598e-14 0)
(0 2.63686e-15 0)
(0 2.63865e-16 0)
(0 2.01646e-17 0)
(0 1.23712e-18 0)
(0 6.30518e-20 0)
(0 2.73604e-21 0)
(0 1.00726e-22 0)
(0 1.29489e-24 0)
(0 1.08317e-23 0)
(0 3.67197e-22 0)
(0 9.51828e-21 0)
(0 2.16268e-19 0)
(0 4.21574e-18 0)
(0 6.79904e-17 0)
(0 8.59172e-16 0)
(0 7.77754e-15 0)
(0 4.24984e-14 0)
(0 9.27464e-14 0)
(0 9.08469e-14 0)
(0 3.99146e-14 0)
(0 6.96243e-15 0)
(0 7.12243e-16 0)
(0 5.05725e-17 0)
(0 2.72422e-18 0)
(0 1.17514e-19 0)
(0 4.20865e-21 0)
(0 1.28178e-22 0)
(0 3.24733e-24 0)
(0 1.11839e-24 0)
(0 2.49271e-23 0)
(0 8.79317e-22 0)
(0 2.75044e-20 0)
(0 7.34689e-19 0)
(0 1.61573e-17 0)
(0 2.76383e-16 0)
(0 3.34052e-15 0)
(0 2.35009e-14 0)
(0 5.485e-14 0)
(0 5.38498e-14 0)
(0 2.22295e-14 0)
(0 3.03047e-15 0)
(0 2.34099e-16 0)
(0 1.2421e-17 0)
(0 4.98104e-19 0)
(0 1.59771e-20 0)
(0 4.25639e-22 0)
(0 9.5355e-24 0)
(0 8.76456e-26 0)
)
;

boundaryField
{
    bc0
    {
        type            zeroGradient;
    }
    bc1
    {
        type            zeroGradient;
    }
    bc2
    {
        type            zeroGradient;
    }
    bc3
    {
        type            zeroGradient;
    }
    top
    {
        type            zeroGradient;
    }
    bottom
    {
        type            zeroGradient;
    }
}


// ************************************************************************* //
