/*--------------------------------*- C++ -*----------------------------------*\
  =========                 |
  \\      /  F ield         | OpenFOAM: The Open Source CFD Toolbox
   \\    /   O peration     | Website:  https://openfoam.org
    \\  /    A nd           | Version:  6
     \\/     M anipulation  |
\*---------------------------------------------------------------------------*/
FoamFile
{
    version     2.0;
    format      ascii;
    class       volScalarField;
    location    "16416000";
    object      Cw;
}
// * * * * * * * * * * * * * * * * * * * * * * * * * * * * * * * * * * * * * //

dimensions      [1 -3 0 0 0 0 0];

internalField   nonuniform List<scalar> 
11831
(
0
0
0
0
0
0
0
0
0
0
0
0
0
0
0
0
0
0
0
0
0
0
0
0
0
0
0
0
0
0
0
0
0
0
0
0
0
0
0
0
0
0
0
0
0
0
0
0
0
0
0
0
0
0
0
0
0
0
0
0
0
0
0
0
0
0
0
0
0
0
0
0
0
0
0
0
0
0
0
0
0
0
0
0
0
0
0
0
0
0
0
0
0
0
0
0
0
0
0
0
0
0
0
0
0
0
0
0
0
0
0
0
0
0
0
0
0
0
0
0
0
0
0
0
0
0
0
0
0
0
0
0
0
0
0
0
0
0
0
0
0
0
0
0
0
0
0
0
0
0
0
0
0
0
0
0
0
0
0
0
0
0
0
0
0
0
0
0
0
0
0
0
0
0
0
0
0
0
0
0
0
0
0
0
0
0
0
0
0
0
0
0
0
0
0
0
0
0
0
0
0
0
0
0
0
0
0
0
0
0
0
0
0
0
0
0
0
0
0
0
0
0
0
0
0
0
0
0
0
0
0
0
0
0
0
0
0
0
0
0
0
0
0
0
0
0
0
0
0
0
0
0
0
0
0
0
0
0
0
0
0
0
0
0
0
0
0
0
0
0
0
0
0
0
0
0
0
0
0
0
0
0
0
0
0
0
0
0
0
0
0
0
0
0
0
0
0
0
0
0
0
0
0
0
0
0
0
0
0
0
0
0
0
0
0
0
0
0
0
0
0
0
0
0
0
0
0
0
0
0
0
0
0
0
0
0
0
0
0
0
0
0
0
0
0
0
0
0
0
0
0
0
0
0
0
0
0
0
0
0
0
0
0
0
0
0
0
0
0
0
0
0
0
0
0
0
0
0
0
0
0
0
0
0
0
0
0
0
0
0
0
0
0
0
0
0
0
0
0
0
3.97443e-23
2.63992e-19
3.27231e-19
-2.7226e-19
1.61284e-22
-6.76404e-21
4.53758e-16
-2.28529e-21
1.16132e-24
-1.66923e-18
-3.57022e-17
1.5692e-24
2.43706e-14
-1.10648e-23
1.45005e-27
4.83568e-19
1.65284e-26
5.63754e-17
2.06236e-16
2.74157e-27
-6.77464e-26
-3.49579e-19
-9.41878e-13
-6.92631e-30
4.65259e-30
-1.23216e-16
4.02666e-13
1.3342e-28
8.56216e-19
4.54552e-33
-3.5363e-28
2.88406e-12
2.57728e-17
1.47915e-31
-2.92729e-33
-1.18973e-12
-2.75791e-18
1.95289e-35
-1.31922e-30
-1.03093e-11
7.44477e-17
-6.70784e-34
-7.4333e-35
3.54228e-12
8.85687e-19
-3.96792e-38
1.78759e-33
9.95153e-12
2.04892e-24
-4.55987e-18
5.48019e-19
-1.6156e-20
2.64847e-17
3.8031e-36
-4.41572e-21
3.76321e-21
-4.55248e-17
2.21309e-20
-2.8198e-26
-1.58033e-17
-6.1877e-20
7.69947e-37
-3.93386e-25
4.76632e-16
3.50949e-12
-6.53324e-26
-4.05955e-15
2.40401e-22
3.79425e-18
-1.71305e-38
-1.97162e-39
1.34266e-12
7.22727e-19
8.2779e-41
1.23927e-35
6.98135e-12
-6.20809e-19
-1.69889e-27
-6.86329e-17
-6.3587e-30
5.6615e-32
3.08121e-18
4.94696e-29
-8.59873e-19
4.79279e-26
1.1696e-13
-1.09562e-31
-1.09075e-28
-1.53198e-14
-3.23472e-13
6.53175e-27
1.83035e-12
-8.93206e-40
5.44579e-19
4.46418e-13
2.89071e-41
2.50184e-19
-1.42944e-37
-2.14716e-42
2.07332e-12
3.03586e-36
-9.30461e-19
7.29186e-17
3.66724e-33
1.016e-18
1.2712e-39
-2.99365e-18
-3.31141e-34
4.93748e-17
-4.57082e-35
1.1451e-17
4.49598e-37
-1.33412e-23
-1.17077e-18
2.46277e-17
1.74039e-22
9.09806e-25
1.02144e-17
7.63447e-20
2.10993e-18
-1.79101e-21
7.20913e-20
3.01242e-19
2.63285e-25
-6.75177e-19
-8.65057e-20
2.82585e-21
4.48384e-18
-1.85264e-26
5.57117e-17
-1.53053e-18
4.85328e-32
1.38904e-28
3.86594e-12
1.02844e-15
8.4971e-22
6.03445e-22
1.7088e-20
-1.32065e-14
-7.11744e-23
4.14789e-29
-3.68473e-12
-3.24685e-13
6.39014e-37
-1.03638e-19
-4.03774e-38
2.29086e-33
2.85376e-25
-4.35665e-34
2.2075e-12
1.50667e-12
-1.82606e-23
2.9729e-12
-1.72524e-17
-4.06394e-23
-5.081e-16
4.73086e-24
-3.75773e-29
6.73536e-15
-5.84391e-14
-1.03761e-26
-5.0324e-17
-1.01516e-20
1.20597e-11
7.95505e-41
1.20655e-19
7.17739e-14
-1.22747e-42
2.29526e-22
-2.10757e-22
-1.50266e-21
-3.74296e-21
-6.49159e-21
-1.37166e-20
-1.16728e-20
-1.97151e-20
4.3737e-20
1.29913e-19
4.35454e-19
1.03422e-18
1.26203e-18
2.6928e-18
2.25364e-18
5.45016e-18
1.27906e-18
-1.7831e-18
-3.55034e-17
-9.03743e-17
-1.8713e-16
-3.88274e-16
-4.16747e-16
-7.40937e-16
1.45443e-16
1.10568e-15
6.34573e-15
1.55373e-14
2.75326e-14
5.58459e-14
3.6977e-14
1.1026e-13
8.51656e-14
2.16761e-13
1.86143e-13
4.23646e-13
3.76745e-13
7.83476e-13
7.32137e-13
1.28963e-12
1.38344e-12
1.97771e-12
2.55967e-12
2.66903e-12
4.73594e-12
2.64622e-12
8.1735e-12
-1.92655e-12
1.25306e-11
-1.79023e-11
-1.0852e-10
-2.40354e-10
-6.23742e-11
-5.10344e-10
-1.72066e-10
-1.03993e-09
-1.49137e-09
-2.54609e-09
-2.01616e-09
-4.28654e-09
-2.85911e-09
-2.96227e-09
-6.82818e-09
2.1061e-10
3.13144e-08
7.28185e-08
1.65591e-07
3.12753e-07
1.55798e-07
5.63866e-07
3.11741e-07
9.49995e-07
1.05703e-06
1.59255e-06
1.52962e-06
2.16575e-06
2.27901e-07
-1.70931e-06
2.73708e-06
-6.65047e-06
-2.70285e-05
-5.36137e-05
-1.77243e-05
-0.000100323
-0.000171156
-0.00028062
-0.000331108
-0.000478612
-0.000439982
-0.000678894
-0.000499255
-0.000513446
-0.000907005
-0.000245825
-0.00111831
0.000550382
0.00488097
0.00990554
0.00239588
0.018623
0.0380323
0.0625815
0.0329818
0.0993303
0.151693
0.224604
0.294811
0.152364
0.322907
0.226186
0.450983
0.325309
0.612137
0.453659
0.807752
0.613829
1.03641
0.806283
1.54167e-13
1.29326
1.02861
1.5697
1.76785
1.27501
0.741856
0.942268
0.479907
0.628042
2.05216
2.09276
0.273413
2.33367
2.25573
0.372353
0.132252
2.44872
2.22061
0.191218
0.0495507
2.32224
1.92113
0.0801599
1.9305
1.44511
0.00956675
0.0227038
1.38761
0.927602
-0.00475035
-0.000717873
0.845586
0.497829
-0.0069463
0.42751
0.215535
-0.00662739
-0.00573518
0.171437
0.0692009
-0.00611318
0.0485652
0.0118776
-0.00380724
-0.00438181
0.00514436
-0.00303434
-0.000840802
-0.00409716
-0.00361119
-0.00341698
-0.00332266
-0.00218776
-0.00236693
-0.00108914
-0.00130088
-0.000411337
-0.000552461
-0.000102249
-0.00016955
-1.04094e-06
-2.54801e-05
1.78055e-05
1.11732e-05
1.53104e-05
1.31037e-05
9.3438e-06
9.44483e-06
4.09253e-06
4.78294e-06
1.246e-06
-0.00196558
1.73869e-06
-0.00248501
-0.00475204
-0.000278883
7.62708e-07
1.68199e-08
-0.00297768
-0.00495338
-0.00077163
-1.13318e-07
-1.32001e-07
-0.00333844
-0.00500672
-0.00351861
-0.00439458
-1.52813e-07
-8.28879e-08
-0.00357379
-0.00330054
-6.9451e-08
-2.059e-08
-0.00350827
-0.00150549
-0.00295838
0.00105259
-1.13492e-08
3.55058e-10
-0.00233947
-0.00209937
0.00422823
-0.000938644
0.00779826
2.37171e-09
2.17533e-09
1.84833e-09
1.27587e-09
1.32739e-09
4.69836e-10
0.00056485
0.011494
1.04212e-09
6.11207e-10
0.00229446
0.0149939
1.02506e-10
0.00408586
0.0180202
1.82343e-10
0.00580003
0.0203534
-9.56688e-13
0.000317929
0.00728763
0.0218657
-0.00438771
2.60743e-11
0.00844346
0.0225443
0.0495273
0.0471771
0.0903325
0.0808135
0.13946
0.118623
0.186888
0.152204
0.220644
0.098064
0.120752
0.078844
-0.000491452
-6.93902e-05
7.69574e-06
6.2073e-05
6.35784e-05
4.43114e-05
3.76177e-05
1.72256e-05
1.18018e-05
2.65227e-06
8.88146e-07
-7.5014e-07
-8.39614e-07
-6.11238e-07
-5.1262e-07
-2.27266e-07
-1.48056e-07
-2.59339e-08
-4.6567e-09
1.14957e-08
1.11943e-08
-5.95221e-08
7.13261e-09
5.49288e-09
1.8761e-09
1.03607e-09
-1.37633e-11
-1.34629e-10
0.093304
0.0617133
-1.35758e-11
-1.47933e-10
-1.24217e-10
-5.92141e-11
-3.82867e-11
-1.60507e-10
-7.91147e-12
0.0703639
0.0470673
5.08426e-06
-6.48426e-12
-1.34208e-12
-9.37489e-12
-9.1014e-12
-3.01301e-12
-1.80262e-12
0.051844
0.0349792
2.42552e-12
2.22072e-12
-7.88159e-12
7.35316e-12
-1.08198e-13
1.9248e-13
1.2785e-12
9.08638e-13
0.0374104
0.052168
0.0253705
2.27127e-13
9.78362e-14
1.97291e-13
2.23186e-13
4.27393e-13
9.04176e-14
6.06476e-14
-3.12586e-14
-3.40839e-14
2.19366e-14
-3.00783e-14
-1.68574e-14
-1.15092e-14
-2.42745e-14
-7.19284e-15
-9.56946e-16
-1.03939e-16
-3.88148e-15
2.66847e-16
3.62026e-16
2.79248e-16
3.42466e-16
1.99758e-16
6.84137e-17
3.40382e-17
1.32372e-16
1.48895e-17
-3.97057e-18
0.0263863
0.0179815
8.36682e-17
-3.8562e-18
-2.73081e-18
8.53303e-15
-1.04625e-15
0.0181747
0.0124794
0.0116438
0.00812446
0.00710769
0.00501183
-4.05129e-15
-4.59566e-15
2.19712e-14
0.00408175
-1.81574e-18
-4.96979e-19
0.00291229
-2.12538e-15
-1.40566e-15
0.00847345
0.00220345
-2.32002e-16
-3.69945e-18
-7.22656e-16
1.14065e-16
-2.00518e-16
8.76607e-17
-2.23471e-19
4.57204e-20
-9.81472e-11
1.43688e-16
1.1383e-16
0.00159339
0.000381667
-0.00493864
2.15852e-06
4.95726e-06
2.43269e-06
4.35747e-06
2.48406e-06
3.39223e-06
2.33567e-06
2.48377e-06
1.9708e-06
1.52866e-06
1.47436e-06
4.37211e-07
1.03172e-06
-7.25784e-07
6.16467e-07
-1.86095e-06
1.90518e-07
-2.87764e-06
-2.34387e-07
-3.67043e-06
-6.21495e-07
-4.17411e-06
-9.44264e-07
-4.33876e-06
-1.17253e-06
-4.19611e-06
-1.29121e-06
-3.79496e-06
-1.30428e-06
-3.21964e-06
-2.81837e-07
-1.22297e-06
-2.56598e-06
-1.07201e-06
-1.92175e-06
-8.83489e-07
-1.34396e-06
-6.83998e-07
-8.806e-07
-4.98886e-07
-5.28463e-07
-3.38804e-07
-2.91427e-07
-2.32458e-07
2.60007e-08
1.26884e-06
1.41593e-06
1.83891e-07
1.40407e-06
5.31642e-06
4.47539e-06
1.28209e-06
3.61162e-06
1.0446e-05
7.81831e-06
2.80659e-06
5.67681e-06
-2.76319e-07
2.107e-06
4.00481e-06
9.62176e-06
6.44955e-06
2.74852e-06
4.21644e-06
8.98769e-06
5.62889e-06
1.09803e-05
6.61381e-06
3.44616e-06
3.90089e-06
6.91438e-06
3.94972e-06
2.25335e-06
2.21929e-06
1.27639e-06
1.22547e-06
7.097e-07
6.64479e-07
6.57678e-06
3.87989e-07
3.53333e-07
2.08633e-07
1.8429e-07
2.88556e-07
1.45702e-07
9.43203e-08
7.22009e-08
1.0268e-07
4.73754e-08
3.5123e-08
-6.73483e-06
2.33567e-08
1.6778e-08
4.55973e-20
3.37122e-20
4.74491e-20
1.1306e-08
0.00111789
1.20253e-20
-0.00272926
-0.00500656
1.44969e-16
2.19842e-16
0.000820634
2.03e-20
-0.00455086
-0.00484198
7.87246e-09
5.37501e-09
5.96884e-21
-2.71299e-22
4.72426e-18
2.15446e-07
0.000532526
-0.00524412
-0.00435976
1.1064e-16
2.21689e-16
-5.42648e-22
-5.44748e-22
-0.0051847
-0.00369192
3.62929e-09
2.51044e-09
3.43294e-09
0.00039772
0.000585618
6.8429e-09
-0.0047784
-0.00291461
-0.00419488
-0.00217417
-0.00105359
-0.000654215
-0.000177747
-6.4679e-05
-0.000369314
-1.33692e-06
4.74857e-05
4.43207e-05
3.45392e-05
2.55757e-05
1.24053e-05
7.09779e-06
1.71803e-05
1.60216e-06
3.2293e-07
-6.04777e-07
-5.66987e-07
-4.26666e-07
-2.98513e-07
-1.25696e-07
-6.18588e-08
-5.47728e-09
5.08842e-09
-2.42196e-08
8.4925e-09
7.6923e-09
-4.60339e-09
6.47634e-17
1.91012e-16
0.000237724
1.62409e-09
0.00028822
0.000406684
-1.30604e-05
1.15224e-09
-3.74485e-22
-1.24316e-22
0.000202944
0.000275104
7.54946e-10
2.05629e-09
6.78823e-09
3.84696e-09
2.94957e-17
-9.68382e-19
1.30574e-16
0.000139011
0.000181428
5.19858e-10
3.44914e-10
4.88896e-09
0.0279847
-5.0652e-06
-1.6219e-12
3.84865e-07
-8.21277e-20
-5.97357e-23
5.01338e-24
-3.48293e-24
7.93458e-24
-0.00389763
1.04389e-23
9.27252e-05
0.000116738
5.0856e-09
5.69339e-09
-5.22051e-18
-3.71788e-18
-1.75523e-07
2.3062e-10
1.54925e-10
5.67702e-24
2.05514e-24
6.64115e-05
6.02899e-05
7.33574e-05
-0.0014559
0.263641
3.46619e-09
4.87114e-09
1.60204e-09
-2.75768e-18
-7.9698e-19
3.82443e-05
4.50588e-05
8.1291e-05
4.85489e-05
8.32956e-05
2.70553e-05
1.00623e-10
6.84338e-11
9.75829e-11
1.07597e-24
-3.12859e-26
4.36311e-11
9.2936e-09
5.89199e-09
2.8474e-05
1.5911e-05
-2.66171e-19
6.54277e-20
2.08411e-09
3.48244e-09
0.00127521
4.45648e-13
2.97359e-11
5.77805e-11
1.91874e-11
-7.23019e-26
-7.8822e-26
-3.97592e-09
0.000301092
0.000121681
0.000142729
4.99239e-05
5.03985e-05
1.29624e-05
9.43104e-06
-2.01609e-07
-3.2412e-06
-3.13266e-06
-4.67776e-06
-2.34914e-06
-2.97141e-06
-1.13623e-06
-1.15223e-06
-1.7175e-06
1.63645e-05
9.17234e-06
8.58804e-20
5.00044e-20
1.59337e-20
1.07723e-09
2.27684e-09
3.77763e-09
3.1406e-09
-2.6536e-09
1.4443e-09
-2.26263e-08
-8.332e-09
-5.94591e-08
-2.98202e-08
-9.7323e-08
-6.00491e-08
-1.11193e-07
-8.23159e-08
4.00665e-10
-5.63111e-08
3.52966e-07
1.10661e-07
1.00178e-06
4.65977e-07
1.96651e-06
1.79566e-06
9.84409e-07
5.21121e-06
1.46233
1.89145
-3.01542e-07
-2.15696e-07
7.95587e-09
2.63456e-09
3.26284e-16
3.07083e-16
1.58938e-16
4.27785e-16
-2.01216e-15
-3.87654e-16
-9.15628e-15
-4.75359e-15
1.30688e-14
1.27136e-11
8.30142e-12
-5.26733e-26
-7.06525e-26
-1.62492e-26
-2.88185e-26
1.4967e-28
-1.92538e-27
-4.31862e-10
5.64755e-08
2.32696e-06
1.41342e-06
4.5252e-09
2.23278e-09
7.87057e-20
1.12153e-19
1.88759e-07
9.21684e-06
5.19354e-06
4.91731e-06
1.36214e-27
5.10825e-08
7.01128e-08
2.79164e-06
8.21532e-28
1.7816e-06
1.51062e-06
5.34985e-12
3.53449e-12
3.91094e-06
1.74622e-27
2.50803e-06
2.93566e-08
3.14311e-08
3.43093e-08
8.79229e-08
3.25812e-08
1.00165e-07
2.77145e-08
4.47491e-09
4.2216e-10
1.92901e-08
-3.71945e-09
8.46184e-09
-7.68563e-09
-2.87936e-09
-1.02922e-08
-1.32718e-08
-1.18652e-08
-4.79389e-09
-4.18406e-09
-1.22581e-08
-3.18759e-09
-4.13824e-10
8.3489e-11
-1.94704e-09
4.70488e-10
3.67007e-10
3.85784e-10
1.49001e-10
1.17245e-10
-6.74774e-10
1.98795e-11
3.14008e-12
-7.35443e-12
-9.66466e-12
-9.47282e-12
-9.72647e-12
-3.84914e-12
-2.93379e-12
-1.7254e-11
-2.21159e-09
-4.61313e-13
-4.40683e-14
-3.12312e-12
2.88561e-06
1.55471e-06
5.40568e-20
1.04952e-19
-1.29634e-06
2.19612e-07
-5.38737e-06
5.70113e-28
2.21622e-12
3.10406e-12
1.48134e-12
2.19467e-12
9.30415e-13
1.85269e-13
2.16234e-13
6.63862e-10
1.56462e-09
1.57312e-06
8.50619e-07
2.80908e-20
8.25078e-20
8.87608e-28
1.28409e-12
9.2455e-14
7.76264e-14
2.08779e-13
5.33006e-14
1.87136e-13
2.93442e-14
-2.3109e-15
-6.62819e-15
1.50524e-13
0.274563
0.300383
0.376835
0.386821
0.488585
0.461398
0.592283
0.503918
0.660102
0.501171
0.66527
0.475844
1.38185e-10
2.43093e-12
-5.87226e-12
0.00201341
-7.36838e-06
-2.76246e-06
6.26664e-07
-7.76212e-07
5.74545e-07
-3.54906e-08
-3.25705e-06
-1.23778e-06
1.81838e-07
-3.80406e-07
-3.00766e-06
-1.27958e-06
-4.86495e-06
-2.3464e-06
-2.42182e-22
0.368381
-6.0391e-06
-3.18267e-06
-4.12883e-15
-3.73708e-15
1.63017e-11
-2.542e-12
9.04028e-13
-1.15671e-15
-6.59962e-16
9.97491e-14
6.65748e-29
5.50664e-13
3.23248e-11
2.57462e-12
0.639123
0.42126
-6.30973e-11
2.08751e-10
-5.91752e-06
-3.51976e-06
-4.88295e-07
8.41472e-07
4.57507e-07
6.01763e-20
1.62679e-20
3.00417e-20
2.27255e-21
8.00128e-21
-8.2356e-22
4.7039e-22
-6.40274e-22
-6.47143e-22
-2.93314e-22
-4.09163e-22
-6.86898e-23
-1.49428e-22
-1.12159e-24
-2.74227e-23
6.27374e-24
-1.43632e-22
2.54801e-24
-6.92047e-23
-9.79452e-24
-1.19124e-22
3.62546e-24
2.49505e-24
-3.16684e-23
-1.42e-22
4.90111e-25
4.39571e-26
-5.95343e-23
-1.25913e-22
-9.01415e-26
-8.78664e-26
-7.50021e-23
-4.30016e-23
-3.61755e-26
2.91348e-09
7.41928e-10
4.77585e-09
-1.52898e-26
1.1012e-20
5.15659e-20
1.6628e-28
4.7591e-11
8.76482e-12
-2.19636e-12
-4.97994e-13
-1.74e-12
-1.26241e-12
-8.54041e-13
-8.08738e-13
-2.63671e-13
-3.20106e-13
-4.61967e-14
-8.12649e-14
2.73382e-15
-9.05146e-15
-1.09898e-13
6.14886e-15
-2.19859e-14
-1.20017e-13
-3.30407e-14
-1.13814e-13
-4.01217e-14
-8.80831e-14
-4.05564e-14
-5.63227e-14
-3.45736e-14
-2.86174e-14
-8.98411e-15
-2.39116e-14
-4.29924e-16
-1.41068e-14
2.70933e-14
-5.68681e-15
4.93835e-14
6.20939e-14
2.40495e-15
6.48221e-14
2.50534e-13
2.144e-13
6.87684e-14
1.59892e-13
-9.29194e-15
1.52693e-11
2.53642e-13
1.19436e-13
9.95264e-14
1.25582e-14
5.32023e-14
-7.44781e-14
2.17834e-14
-1.34185e-13
1.64951e-09
6.61675e-09
-2.23479e-13
7.09362e-13
-2.78729e-15
-1.65157e-13
-7.21796e-13
-6.10861e-13
-5.71858e-28
-1.69637e-13
-4.58298e-13
-9.78217e-13
-5.08377e-13
2.01485e-17
1.10874e-16
-2.54827e-16
1.42421e-16
3.32159e-17
1.35421e-16
5.42168e-17
3.77947e-17
4.05748e-18
-7.65998e-19
2.07409e-17
-3.23918e-18
-2.14301e-18
-1.83188e-18
-3.82847e-18
-1.41673e-18
-2.69549e-19
-8.79308e-20
-9.47708e-19
2.45707e-20
5.69352e-20
4.93949e-20
7.48177e-20
4.02967e-20
1.0913e-20
5.14011e-21
-6.74168e-23
1.66549e-22
-3.10296e-13
-2.41107e-13
1.18313e-13
5.13288e-13
3.96976e-12
3.8912e-12
7.24488e-13
3.38641e-12
1.10184e-11
7.66745e-12
2.68706e-12
4.84571e-12
8.64457e-12
4.06668e-12
2.79783e-12
1.63553e-12
1.41051e-12
2.27021e-13
-5.29743e-12
-5.93324e-12
-5.44251e-13
-5.5902e-12
-2.4134e-11
-1.8066e-11
-5.66482e-11
-3.64473e-11
-1.26978e-11
-2.21129e-11
-8.41633e-12
-1.25419e-11
1.34164e-27
-5.28889e-26
-1.5193e-10
-1.315e-10
-9.67581e-11
-4.04814e-11
-1.95144e-11
-1.22651e-12
1.98397e-12
2.24102e-12
1.69854e-12
7.60952e-13
3.64903e-13
3.22685e-14
-2.97382e-14
-3.52947e-14
-2.58393e-14
-3.55495e-14
-1.6002e-14
-2.88547e-14
-4.89185e-15
-7.92763e-15
-1.94462e-14
8.17453e-20
4.27633e-08
-3.43032e-06
1.99968e-14
-3.97839e-23
4.83521e-22
3.0776e-13
3.61753e-28
1.87525e-27
-2.5541e-23
4.41908e-07
7.59715e-07
2.41827e-07
2.36554e-07
1.25215e-07
1.7916e-27
-2.99489e-27
1.16504e-27
-3.18108e-15
-1.12076e-14
1.26228e-21
2.22245e-20
-2.05445e-21
-2.50923e-29
-2.09438e-29
-1.37205e-16
-8.25471e-22
-1.17733e-21
-5.25533e-12
-6.63076e-12
-2.29375e-06
-2.21214e-06
-8.52658e-11
-8.57838e-06
0.575181
0.836103
0.342783
8.72606e-15
3.88884e-15
3.37071e-15
6.61792e-16
2.21444e-16
-1.12321e-16
-1.87474e-16
-1.04563e-16
-8.7388e-17
-3.45875e-17
-4.07067e-17
-6.67071e-18
-1.12045e-17
-3.72877e-20
-1.60304e-18
5.8158e-19
4.15268e-23
0.00920232
-9.62282e-30
-6.16677e-30
-9.77023e-17
0.76394
1.06527
2.91812e-09
8.16581e-09
-3.09353e-12
-3.25374e-12
-4.41709e-12
-1.50835e-12
3.70639e-13
-6.26186e-22
-4.7851e-22
-1.42445e-12
-1.16923e-13
4.57449e-12
4.36474e-12
4.4391e-13
3.5792e-12
1.16787e-07
2.24759e-19
6.33424e-28
2.45081e-27
1.94404e-21
1.54243e-05
-1.48755e-07
-5.17379e-08
4.84351e-10
0.207983
0.747171
5.87953e-05
-1.41321e-14
-0.000183067
-1.10594e-21
3.37826e-06
-1.89485e-06
-1.59535e-06
-9.55638e-07
-9.8101e-07
-2.23025e-16
-1.46054e-10
0.239121
2.32436e-13
1.31397e-13
9.6596e-14
-8.69325e-17
2.88601e-14
1.40298e-14
1.24208e-14
8.65073e-15
-3.47739e-14
-9.72061e-15
-1.1191e-13
-4.4269e-14
-1.89847e-13
-8.23248e-14
-1.8615e-13
-3.90331e-13
-1.93661e-13
-2.50483e-13
8.8672e-13
2.71017e-12
2.54461e-13
2.52432e-12
9.65589e-13
3.99536e-12
1.6681e-12
4.27327e-12
1.96712e-12
3.49784e-12
6.79452e-12
1.68342e-12
1.02374e-12
-2.57915e-12
6.77188e-13
-2.3799e-11
-6.68751e-11
-1.18324e-10
-2.87871e-10
-1.77461e-15
-4.71742e-11
0.00267427
2.17808e-05
-0.00173307
0.987379
1.32144
1.24217
1.59542
1.52137
1.88045
-1.56272e-10
3.88883e-07
6.20762e-07
-4.68904e-07
-5.32121e-07
7.8308e-28
1.81834e-28
-2.12052e-21
6.26406e-21
7.59403e-20
3.9448e-20
-7.46129e-16
-5.10008e-15
4.63041e-16
4.64431e-28
-5.08257e-31
-8.92321e-32
6.19131e-08
6.52879e-08
1.01509e-27
3.5204e-19
-9.51847e-23
-1.80172e-12
5.52216e-14
3.95336e-14
3.38576e-06
-1.51858e-10
-6.46847e-11
1.813
-4.84362e-07
-3.75067e-07
-2.4711e-14
-2.42612e-14
-7.66056e-22
5.80295e-13
2.68533e-12
0.171924
0.113193
9.85926e-07
2.17691e-11
1.38874e-19
1.0537e-19
-3.43282e-23
2.16042
0.00322876
0.00055093
3.09088e-07
4.54065e-07
-2.05353e-21
5.34278e-13
1.89223e-12
2.28509e-14
1.59379e-14
2.33106e-31
1.75767e-31
0.0692949
0.0422046
-0.00349451
4.55588e-09
8.77345e-09
-3.00366e-10
3.22707e-08
2.53798e-30
2.48073e-19
-2.81742e-19
5.47932e-08
1.57513e-23
-2.16665e-07
3.86025e-16
2.34079e-16
-2.32049e-29
3.35323e-08
2.40683e-10
0.0201517
0.0106548
0.00251537
3.33475e-13
-2.05597e-10
4.24499e-13
1.2694e-12
8.79713e-29
2.77595e-07
-2.93759e-08
-1.52283e-10
-6.88408e-11
3.1978e-23
2.10351
0.000466878
0.0051345
-0.0015558
4.65618e-05
4.60337e-12
2.84356e-12
1.24293e-19
9.42764e-20
-9.68771e-15
1.39385e-19
-8.60192e-19
1.65604e-08
-1.40889e-29
2.98737e-14
5.76195e-32
3.50513e-32
1.2339e-31
1.83459e-32
8.10047e-32
2.94562e-31
1.15748e-18
1.55822e-23
6.80765e-24
2.41786
4.95267e-11
-3.5623e-11
1.48811e-10
8.91952e-33
5.35083e-32
-1.56692e-33
8.17265e-13
1.70462e-12
9.31265e-15
6.33067e-15
1.01248e-14
2.39719e-14
1.10233e-13
1.32628e-12
9.29505e-20
1.56181e-19
6.22422e-20
1.26936e-19
-5.63955e-05
-1.78185e-10
-6.79016e-10
-4.55055e-10
-1.55268e-09
-1.11878e-09
-3.45057e-09
-2.65295e-09
-7.41606e-09
-6.08688e-09
-1.54811e-08
-1.35111e-08
-3.1016e-08
-2.91317e-08
-6.05107e-08
-6.08842e-08
-1.14567e-07
-1.2251e-07
-2.10501e-07
-2.37143e-07
-3.77656e-07
-4.43265e-07
-6.44679e-07
-2.34924e-07
-1.27859e-07
-1.01168e-06
4.92063e-07
3.41581e-06
8.43528e-06
2.39004e-06
1.96752e-05
3.37199e-05
7.04187e-05
4.38385e-05
0.000142987
0.00018545
0.000355255
0.00039916
0.000730155
0.000664535
0.00130368
0.00129071
0.00222654
0.00227668
0.00375487
0.00334787
0.00542781
0.00618727
0.00860375
0.00996822
0.0133313
0.0104633
0.0156127
0.0201909
0.0228085
0.0298838
0.0326562
0.0112985
-2.09009e-07
-2.60775e-08
0.0432026
0.045874
-9.04958e-09
0.0323058
0.0437796
0.0630528
0.0579284
0.0365925
0.0463771
0.0747498
0.0572697
0.0940649
0.068861
0.115352
0.0805784
0.137786
0.0917069
0.160233
0.101445
-3.45838e-09
0.181319
0.0363073
0.108991
0.0477852
0.0264657
0.142249
0.199553
0.113637
0.0543179
1.46235e-05
2.18949e-07
2.91517e-07
-8.79204e-30
1.69814e-08
1.1847e-16
2.46726e-17
5.07631e-13
2.67566e-20
3.73872e-15
8.37906e-09
-1.79776e-30
-1.47474e-20
-1.34021e-18
1.12131e-20
8.77582e-24
6.00743e-09
8.27685e-09
-6.44296e-09
-2.75692e-08
-1.27414e-07
-4.59595e-10
-2.8315e-21
0.0356208
2.29363
-5.62469e-16
1.08787
-0.000440047
0.00213513
-2.78428e-14
0.000873969
-5.99322e-05
9.08942e-12
8.3067e-13
4.06641e-13
2.17157e-21
3.39018e-21
4.61472e-24
1.29128e-23
5.1807e-25
1.22342e-06
4.03446e-07
-8.92258e-08
1.04985e-07
-7.6699e-08
9.74632e-09
-1.17726e-10
-5.63599e-11
2.45374
2.37631
3.37478e-21
0.000335807
-1.38352e-07
-5.27595e-08
-1.42515e-08
1.02295e-06
-2.9926e-11
-2.63637e-11
-1.26955e-11
-1.19459e-11
-5.27931e-12
-5.24742e-12
-2.13696e-12
-2.22857e-12
-8.40709e-13
-9.17899e-13
-3.21297e-13
-3.68863e-13
-1.19356e-13
-1.45743e-13
-7.03597e-14
-4.31362e-14
-5.63505e-14
-1.42629e-13
-5.72832e-14
-8.5775e-12
-1.5143e-14
-1.0463e-13
-4.50789e-14
-2.00455e-06
1.59881
7.5671e-17
5.44887e-17
3.38739e-17
3.65973e-17
1.02182e-17
4.8581e-05
-0.00270094
0.00881315
2.54647
-2.90302e-20
0.00557054
2.90915e-08
-1.97961e-07
-4.20114e-07
0.0530748
0.0213869
0.114847
3.92152e-15
5.84224e-15
4.98914e-13
7.68959e-13
2.707e-13
-4.65877e-11
1.58585e-10
8.14174e-20
4.42101e-33
3.57937e-32
7.76924e-09
1.36691e-17
-5.57308e-21
-1.91823e-19
-1.56006e-18
-7.93884e-21
0.602096
1.1601e-09
-6.00225e-11
-4.00862e-11
0.000100865
-0.000154833
-0.000230445
3.26075e-07
-0.000753371
0.000629247
1.56055e-09
1.4029e-09
-8.08546e-19
-6.75889e-10
1.04933e-08
-5.03517e-08
-1.29421e-08
8.4943e-09
4.18876e-09
1.34823e-07
-1.0356e-31
-3.31237e-30
2.61625e-31
8.2995e-21
4.30236e-20
1.15842e-18
4.53739e-17
-2.90944e-21
-3.52224e-19
-1.5314e-18
-4.88125e-08
0.298503
0.00630528
-5.91395e-22
-1.96057e-13
1.14028e-18
-2.63659e-21
2.38784e-26
-2.0387e-25
-0.000138479
-0.000160112
2.14775
2.2278
2.3335e-15
-4.85412e-07
-5.83092e-07
0.256239
0.0190789
0.00581611
1.38915e-12
8.8799e-13
4.13049e-13
2.19782e-33
2.38075e-32
7.393e-32
5.38272e-32
-9.3433e-32
-2.71271e-32
-1.3475e-30
-8.12093e-31
-3.28914e-30
-2.11844e-30
-1.19683e-30
-1.61201e-30
3.05271e-29
1.48383e-29
1.05093e-28
6.59793e-29
1.42027e-28
1.05324e-28
-3.99013e-28
-1.63822e-28
-2.83516e-27
-1.63082e-27
-5.60046e-27
-8.55346e-27
3.34654e-27
-1.45769e-27
8.93012e-26
4.13797e-26
2.29815e-25
3.88737e-25
3.16229e-25
2.59533e-25
-1.69151e-24
-3.80999e-24
-1.39946e-23
-8.06772e-24
-2.15716e-23
-1.39437e-23
1.1231e-23
4.87925e-23
4.07411e-22
1.93604e-22
8.36272e-22
1.41838e-21
9.04281e-22
7.74005e-22
-5.77037e-21
-1.33615e-20
-4.25014e-20
-2.36694e-20
-6.21073e-20
-9.27722e-20
-3.93246e-20
8.75369e-20
2.97978e-19
1.77377e-18
3.30287e-18
5.71527e-18
9.02803e-18
3.03632e-18
-5.26334e-18
3.96469e-18
-9.39513e-17
-2.02148e-16
-4.33683e-16
-7.32928e-16
-6.7644e-16
-7.79794e-16
3.49102e-15
8.36182e-15
1.24749e-15
-3.53979e-16
1.85306e-14
4.72742e-14
8.01179e-14
1.34207e-17
3.81995e-14
1.30199e-13
1.24089e-13
1.39779e-13
1.97132e-13
6.34198e-14
-1.27511e-12
-2.76531e-12
-2.49572e-13
-5.53457e-12
-1.19383e-11
-1.88072e-11
-1.02229e-11
-2.77377e-11
-2.3296e-11
-1.8379e-11
-3.74639e-11
1.44069e-11
2.96992e-10
5.90034e-10
1.40922e-09
2.17492e-09
-4.82213e-11
2.72519e-09
3.38325e-09
2.05624e-09
3.19274e-09
3.67297e-09
-7.42729e-09
-1.96338e-08
-7.32046e-08
-1.24201e-07
2.31943e-09
-2.15399e-07
-3.01192e-07
-2.92665e-07
-2.9996e-07
-3.87143e-07
-1.29621e-07
1.66596e-06
3.49196e-06
3.4597e-07
6.45316e-06
1.54236e-05
2.26547e-05
3.29188e-05
4.07515e-05
-2.46937e-07
1.33687e-06
3.43822e-05
2.23842e-05
4.76975e-05
3.27871e-05
-0.000114295
-0.000251786
7.22456e-32
-2.15072e-21
7.00131e-09
-2.19274e-11
-1.00483e-11
-2.4238e-11
-3.79561e-12
-1.26698e-11
-9.08608e-13
-5.5616e-12
1.67988e-13
-2.0022e-12
5.21218e-13
3.53833e-13
-4.47478e-13
2.68017e-13
9.35813e-14
-2.78165e-12
-9.54532e-13
-6.49438e-12
-3.09277e-12
-9.44498e-12
-5.40127e-12
-4.7758e-12
-5.73602e-12
2.39191e-11
4.2426e-12
8.16066e-11
3.17192e-11
1.47409e-10
7.41246e-11
1.78412e-10
1.09148e-10
8.83777e-12
8.03457e-11
-4.71238e-10
7.55855e-22
-1.55783e-20
-5.88151e-14
-2.76239e-14
-1.89202e-14
-1.22111e-14
-1.12429e-13
-7.74336e-15
-5.21811e-15
-4.3293e-15
-2.51804e-15
-6.42598e-11
-9.90466e-11
4.10354e-16
-1.66867e-15
1.40293e-12
1.93094
2.21299
2.20663e-15
3.04645e-15
5.91926e-09
4.45033e-09
1.57938e-07
6.16018e-07
2.47149e-13
-9.54103e-10
3.54621e-17
1.57305e-17
2.20782e-17
-7.14796e-14
0.00113106
-6.74412e-12
-1.22594e-09
-1.78756e-09
1.33812e-19
9.79288e-20
-2.54264e-22
7.84257e-23
2.02746e-20
1.64253e-17
-3.714e-18
-2.01574e-13
-2.8478e-08
-1.34713e-08
3.2737e-11
3.47154e-31
-5.35226e-31
8.06883e-23
-1.87214e-21
-4.82936e-18
1.13838e-17
-4.34144e-18
-4.68641e-19
-1.14125e-18
1.46423e-31
6.37e-09
5.73811e-09
-4.01963e-12
6.83407e-08
6.08476e-08
4.20452e-09
2.07515e-09
-1.68947e-25
-5.75857e-26
-8.53762e-26
-5.20058e-10
-1.36698e-10
-1.57342e-18
-1.16375e-19
-6.70386e-19
1.37245e-18
-3.29333e-07
-7.60813e-13
7.61988e-12
1.09884e-12
2.74444e-15
3.28171e-16
-1.22191e-15
-1.4095e-16
2.57651e-15
7.36925e-16
-7.6944e-05
-1.70718e-12
-6.56711e-12
-3.95371e-07
1.14219e-06
-4.90699e-07
1.71958e-28
0.00430577
-0.000751219
-4.29661e-05
-0.000818699
0.00346439
0.00149748
0.00813076
0.00419304
0.0144131
0.00799375
0.0215093
0.0124617
0.00425021
0.00697937
-2.64481e-09
-3.0873e-09
-0.000762895
-0.0012093
7.22276e-29
-4.39844e-31
1.43042e-17
-3.99555e-17
2.40935e-14
1.52043e-13
-7.26755e-05
-6.97765e-05
-3.25059e-20
-1.11574e-19
-8.32789e-20
-2.18023e-19
-2.46837e-19
6.5464e-11
2.62355e-10
-5.01749e-18
-0.00511489
0.000421123
0.00108843
3.77757e-29
1.383e-28
-3.50439e-29
-3.75351e-29
-1.58786e-29
-2.2429e-29
1.78345
1.77202
2.24334
2.03281
-2.11241e-19
-6.06936e-19
-5.97359e-19
0.192885
5.42247e-16
-3.48797e-17
3.29627e-14
4.22962e-13
3.96072e-13
4.86257e-13
7.27521e-13
-1.5361e-12
-6.20816e-14
-1.0461e-11
-6.28542e-12
-3.18617e-11
8.1243e-13
-2.84638e-12
1.18807e-12
-3.45677e-13
1.21122e-12
1.10232e-12
-1.08736e-11
1.08108e-12
-1.89905e-07
1.01204e-07
4.50917e-08
8.13178e-08
3.44304e-08
6.04118e-08
2.42882e-08
4.12834e-08
1.57168e-08
2.57317e-08
1.39014e-08
9.22522e-09
1.44259e-08
4.07798e-08
2.16932e-08
6.24367e-08
3.12401e-08
9.21035e-08
4.27883e-08
1.28559e-08
1.52758e-08
5.50529e-08
1.50466e-08
6.55743e-08
1.12759e-08
-4.62202e-10
-5.74541e-09
2.29121e-09
-1.39383e-08
-7.00458e-09
-1.1178e-08
-4.36329e-09
-5.79198e-09
-1.74272e-09
-1.74407e-09
-1.52305e-08
-6.99177e-09
-1.41968e-09
-8.006e-11
2.87315e-10
-1.44783e-09
2.58629e-10
4.25696e-10
-7.19491e-09
1.64324
1.91575
2.64562e-09
3.92076e-09
1.12146e-15
8.21759e-16
8.8089e-13
3.85641e-13
1.83095e-13
1.60134e-13
7.70948e-14
6.30078e-14
1.54938e-32
3.07978e-14
1.73224e-10
2.25458e-10
6.22709e-10
2.49095e-10
-2.67276e-30
4.82063e-09
5.49453e-11
3.63874e-11
1.22226e-22
1.67254e-22
-5.66008e-27
1.75202e-31
-2.06896e-19
-1.42402e-19
-2.58434e-19
2.6704e-18
-1.40202e-08
-9.28771e-09
-1.2648e-08
1.71098e-12
9.20327e-13
3.01864e-13
1.70306e-13
-3.07584e-15
-2.35102e-14
2.90723e-27
-4.71636e-27
-2.19935e-19
-4.22921e-19
-1.39477e-09
-5.59489e-10
-6.03935e-12
-1.96476e-10
-1.09431e-09
-4.86421e-10
-1.45863e-09
8.6093e-12
0.0453824
-1.98391e-14
-1.70575e-14
2.00057e-11
5.08185e-12
0.00215369
0.00377001
2.30515e-10
4.20303e-12
-1.63098e-11
-3.06765e-11
-4.00525e-11
-4.40453e-11
-1.66482e-11
-1.73546e-11
-5.63819e-11
-1.51707e-11
-2.13898e-12
1.11977e-13
-1.06164e-11
2.72553e-12
1.81829e-12
2.34995e-12
5.33004e-12
2.64421e-12
6.9956e-12
2.48951e-12
8.15796e-12
1.96079e-12
2.00988e-13
-1.20432e-13
-1.8176e-13
-2.32345e-13
8.13423e-12
-8.40425e-14
-7.52995e-14
-2.55324e-13
-5.46427e-14
-3.276e-15
5.98604e-15
-2.68538e-14
1.31906e-14
6.22165e-15
-0.000557952
-0.000416228
1.49791e-08
1.0326e-08
-5.35229e-09
-4.99833e-09
-7.97306e-14
2.56762e-09
1.47757e-09
-5.26574e-11
-3.8811e-18
-1.07752e-18
2.86163e-31
3.67798e-31
2.84915e-08
2.67003e-08
2.06158e-09
1.02182e-09
9.59022e-10
4.70052e-10
-1.33394e-21
-5.79686e-22
2.34815e-14
4.63022e-14
-9.48261e-21
8.84155e-21
3.12987e-09
-2.47617e-19
1.70012e-19
3.43133e-18
1.28116e-17
1.01109e-17
4.09941e-15
1.42242e-15
2.68232e-08
-1.42522e-26
-8.67691e-26
1.80177e-15
-1.89768e-10
5.90567e-19
-3.028e-09
3.84201e-09
8.15899e-15
1.22632e-08
3.23514e-09
-1.86602e-15
-1.58896e-12
0.00102974
0.00195787
0.0054955
0.00299069
0.000972784
0.00157295
4.97522e-11
1.69531e-11
0.0382168
1.18007e-10
4.95072e-11
2.70138e-10
1.32184e-10
6.00549e-10
3.28547e-10
1.29168e-09
7.70483e-10
-3.57555e-11
-6.09144e-11
-4.08046e-11
1.20352e-10
2.73487e-10
1.1539e-09
8.02088e-10
2.80502e-09
2.99697e-09
4.10587e-09
1.98227e-09
-1.27414e-08
-2.436e-08
-8.91537e-08
-1.08512e-07
-2.18892e-07
-2.21041e-07
-1.97631e-07
5.84989e-09
-6.53396e-08
2.46754e-09
1.20315e-06
1.94952e-06
5.41658e-07
3.00005e-07
2.67868e-06
7.20674e-06
7.63539e-06
3.30196e-06
2.64874e-09
1.7196e-09
5.08064e-09
3.70848e-09
9.3906e-09
7.75595e-09
1.69229e-08
2.05968e-20
1.18736e-10
5.906e-23
-1.61848e-26
6.97932e-18
5.00767e-32
1.39524e-32
3.54464e-18
6.21139e-18
7.28456e-18
-1.51851e-18
5.77709e-23
3.85393e-23
-5.80344e-30
3.19854e-18
-9.05198e-18
-6.641e-17
-6.97459e-17
-1.41783e-17
-6.14834e-17
1.38697e-05
1.20056e-05
4.41847e-13
1.31359e-12
-1.52483e-19
-1.28272e-25
-2.27543e-25
-5.39606e-16
6.61454e-10
1.77228e-09
1.72198
2.21312
2.25348e-10
-8.37534e-21
7.39301e-18
0.0282349
0.00394509
0.00215157
-0.000458105
-0.000185102
-6.3612e-15
-3.75122e-15
1.23096
1.02547e-19
2.73359e-06
1.02139e-05
6.35505e-06
1.05233e-12
2.22177e-13
-1.75489e-09
1.56139e-08
3.00855e-08
-0.000216482
0.00275908
1.0258e-30
1.28315
1.52501
2.17248
2.09975e-08
-9.76962e-09
-7.49063e-09
5.09673e-16
5.85601e-16
1.66492e-14
-0.002214
-0.00153375
-0.00302506
-0.00180849
-2.9956e-29
1.73473e-12
-2.27655e-05
-2.65272e-05
-1.71463e-05
-6.28706e-05
3.20527e-09
6.89723e-09
4.85722e-16