/*--------------------------------*- C++ -*----------------------------------*\
  =========                 |
  \\      /  F ield         | OpenFOAM: The Open Source CFD Toolbox
   \\    /   O peration     | Website:  https://openfoam.org
    \\  /    A nd           | Version:  6
     \\/     M anipulation  |
\*---------------------------------------------------------------------------*/
FoamFile
{
    version     2.0;
    format      ascii;
    class       volScalarField;
    location    "15552000";
    object      Cw;
}
// * * * * * * * * * * * * * * * * * * * * * * * * * * * * * * * * * * * * * //

dimensions      [1 -3 0 0 0 0 0];

internalField   nonuniform List<scalar> 
11831
(
0
0
0
0
0
0
0
0
0
0
0
0
0
0
0
0
0
0
0
0
0
0
0
0
0
0
0
0
0
0
0
0
0
0
0
0
0
0
0
0
0
0
0
0
0
0
0
0
0
0
0
0
0
0
0
0
0
0
0
0
0
0
0
0
0
0
0
0
0
0
0
0
0
0
0
0
0
0
0
0
0
0
0
0
0
0
0
0
0
0
0
0
0
0
0
0
0
0
0
0
0
0
0
0
0
0
0
0
0
0
0
0
0
0
0
0
0
0
0
0
0
0
0
0
0
0
0
0
0
0
0
0
0
0
0
0
0
0
0
0
0
0
0
0
0
0
0
0
0
0
0
0
0
0
0
0
0
0
0
0
0
0
0
0
0
0
0
0
0
0
0
0
0
0
0
0
0
0
0
0
0
0
0
0
0
0
0
0
0
0
0
0
0
0
0
0
0
0
0
0
0
0
0
0
0
0
0
0
0
0
0
0
0
0
0
0
0
0
0
0
0
0
0
0
0
0
0
0
0
0
0
0
0
0
0
0
0
0
0
0
0
0
0
0
0
0
0
0
0
0
0
0
0
0
0
0
0
0
0
0
0
0
0
0
0
0
0
0
0
0
0
0
0
0
0
0
0
0
0
0
0
0
0
0
0
0
0
0
0
0
0
0
0
0
0
0
0
0
0
0
0
0
0
0
0
0
0
0
0
0
0
0
0
0
0
0
0
0
0
0
0
0
0
0
0
0
0
0
0
0
0
0
0
0
0
0
0
0
0
0
0
0
0
0
0
0
0
0
0
0
0
0
0
0
0
0
0
0
0
0
0
0
0
0
0
0
0
0
0
0
0
0
0
0
0
0
0
0
0
0
0
0
0
0
0
0
0
0
0
0
0
0
0
0
0
0
0
0
0
0
9.60728e-24
3.28569e-19
-1.09259e-19
-1.62942e-20
-8.56514e-24
-1.1569e-22
2.98497e-16
-1.52599e-22
1.18833e-25
-7.60766e-20
1.41594e-16
-1.04971e-22
-1.9622e-15
-6.25286e-25
-1.48121e-26
2.10275e-20
-4.04449e-26
2.19509e-18
1.71379e-14
2.81644e-28
-4.97544e-27
-1.13012e-20
-1.77122e-12
-4.34924e-30
5.46197e-31
-3.85233e-18
9.47199e-13
1.33592e-29
1.99661e-20
-1.33867e-33
-4.17308e-29
1.0204e-11
7.45734e-19
1.03725e-31
8.89602e-34
-2.90549e-12
-6.0178e-20
7.75925e-36
-2.96595e-31
-2.67384e-11
1.53154e-18
-2.60472e-34
-7.86343e-36
8.44744e-12
1.78253e-20
4.06583e-40
-1.76377e-34
2.12146e-11
-7.78438e-25
-6.9993e-18
2.66285e-20
2.31287e-21
4.6057e-19
1.66021e-36
-1.20047e-21
1.82503e-22
-4.50085e-17
1.34524e-21
2.60302e-24
-7.07238e-19
-3.34047e-21
2.93215e-38
9.28188e-25
-1.95378e-15
9.62531e-12
-6.12131e-27
-1.77393e-15
1.76978e-23
5.62367e-20
-1.07167e-38
2.26531e-40
3.80433e-12
1.14257e-20
-6.42366e-42
4.32013e-36
1.81867e-11
-1.19855e-19
2.84297e-28
-1.82297e-18
-3.5915e-30
1.56666e-31
9.42407e-20
5.96359e-28
-3.22796e-20
-2.18628e-26
3.0509e-13
-2.65871e-32
-1.88764e-29
-1.60774e-13
-1.44649e-13
7.07006e-28
2.24458e-12
7.21399e-41
7.23777e-21
1.23087e-12
-2.4118e-42
3.44624e-21
-3.53469e-38
-1.86098e-43
5.55281e-12
-7.88493e-38
-1.66352e-20
1.65009e-18
-1.21289e-33
1.79511e-20
5.65518e-40
-7.43444e-20
3.04067e-35
9.27e-19
5.39278e-36
1.84491e-19
-4.22918e-39
-1.15747e-24
3.23908e-19
1.74601e-18
1.36934e-23
5.61832e-25
4.50193e-19
6.13752e-21
2.28364e-18
-1.24153e-22
-1.50936e-20
1.29858e-20
8.71579e-26
-4.40313e-20
-9.37991e-20
3.17554e-21
2.5162e-19
-9.47923e-27
1.98387e-18
-5.60504e-20
1.12745e-32
2.58175e-29
4.97895e-12
2.0441e-15
8.46885e-23
5.71373e-22
1.04864e-21
-2.16984e-14
-8.38746e-24
7.73277e-30
-3.74159e-12
-2.5604e-13
5.77322e-37
-5.48551e-21
-6.99966e-39
1.50751e-34
1.48972e-26
-6.64028e-35
6.188e-12
2.57909e-12
-1.68146e-23
7.79102e-12
-8.16189e-19
-2.45476e-23
-7.44268e-16
5.93442e-25
-1.84151e-30
1.05977e-14
-9.69989e-14
-4.2757e-28
-1.1417e-16
-8.95557e-22
2.91838e-11
9.29187e-41
1.49745e-21
1.94427e-13
-1.35692e-43
1.8811e-23
1.04131e-24
-9.06884e-23
-2.422e-22
-5.37286e-22
-1.20447e-21
-1.26421e-21
-2.38244e-21
2.01866e-21
7.62134e-21
3.21798e-20
8.43609e-20
1.14519e-19
2.56527e-19
2.11647e-19
5.73413e-19
2.70201e-19
3.25891e-19
-2.76631e-18
-7.59506e-18
-1.87371e-17
-4.20353e-17
-4.61097e-17
-9.62179e-17
-1.80911e-17
3.74187e-17
5.77637e-16
1.51979e-15
3.02945e-15
6.61252e-15
3.87522e-15
1.39046e-14
9.62146e-15
2.86973e-14
2.30972e-14
5.93076e-14
5.24348e-14
1.21418e-13
1.10358e-13
2.34565e-13
2.23271e-13
4.0354e-13
4.39692e-13
6.41658e-13
8.53197e-13
9.07999e-13
1.65158e-12
9.68045e-13
3.01749e-12
-5.28263e-13
-1.64607e-11
-4.02465e-11
-6.42567e-12
-9.27589e-11
-2.37738e-11
-2.05313e-10
-3.32539e-10
-6.09661e-10
-4.36623e-10
-1.08667e-09
-8.88039e-10
-1.20727e-09
-1.9217e-09
-1.28111e-09
5.5471e-09
1.4832e-08
3.83718e-08
7.81937e-08
3.55057e-08
1.53285e-07
7.83219e-08
2.85609e-07
3.22717e-07
5.36231e-07
4.97338e-07
8.30868e-07
3.46987e-07
-1.36914e-08
1.16125e-06
-1.21512e-06
-7.43438e-06
-1.61421e-05
-4.33558e-06
-3.28869e-05
-5.86288e-05
-0.000103273
-0.000125671
-0.000193316
-0.000175012
-0.000291254
-0.000229438
-0.000275126
-0.000427011
-0.000259664
-0.000580722
-2.00797e-05
0.00169673
0.00380627
0.00064637
0.0077799
0.0163399
0.0286644
0.0148616
0.0484256
0.0733452
0.115133
0.148341
0.0789603
0.175348
0.124449
0.259219
0.189808
0.372067
0.280385
0.518615
0.40143
0.702111
0.557349
2.40071e-14
0.923333
0.750772
1.17978
1.29603
0.981534
0.54997
0.738065
0.35804
0.496504
1.57843
1.57195
0.202374
1.84455
1.7275
0.293508
0.0945016
1.96552
1.7173
0.147166
0.0316424
1.87821
1.48838
0.0573922
1.55634
1.10708
0.0023667
0.0120854
1.10667
0.701551
-0.00693929
-0.00491723
0.664274
0.368264
-0.0074167
0.326973
0.153423
-0.00784304
-0.00583417
0.125116
0.0457432
-0.00672477
0.0321022
0.00595434
-0.00360624
-0.00452946
0.00149425
-0.00334661
-0.00187769
-0.00338601
-0.00295893
-0.0025952
-0.00250078
-0.00149954
-0.0015993
-0.000665157
-0.000787985
-0.000217857
-0.000295799
-4.15086e-05
-7.61591e-05
6.72937e-06
-5.28491e-06
1.19821e-05
8.56874e-06
9.11838e-06
7.7438e-06
4.81286e-06
4.87116e-06
1.82031e-06
2.1473e-06
4.58119e-07
-0.00170162
6.68051e-07
-0.00235676
-0.00534295
-0.000142405
2.49399e-07
-3.44054e-08
-0.00306475
-0.00595918
-0.000561073
-8.69385e-08
-7.38823e-08
-0.00376622
-0.00632119
-0.00433016
-0.00650041
-8.36326e-08
-3.7997e-08
-0.00465777
-0.00586252
-3.0832e-08
-7.23605e-09
-0.00481517
-0.00451492
-0.0048356
-0.00206812
-3.23206e-09
9.64536e-10
-0.00310594
-0.00418597
0.0016179
-0.0030553
0.0063714
1.66886e-09
1.21793e-09
1.01935e-09
5.65456e-10
6.17918e-10
1.68818e-10
-0.00138682
0.0119009
4.47366e-10
2.34925e-10
0.000883813
0.0177896
2.49313e-11
0.00358462
0.0235178
5.50703e-11
0.00646828
0.0286058
-6.19171e-12
-0.000743777
0.00929792
0.0326469
-0.00420816
2.9517e-12
0.0118148
0.0354004
0.0791056
0.0795171
0.154462
0.144018
0.248671
0.219158
0.342591
0.287998
0.411595
0.187306
0.235417
0.155375
-0.000295241
2.16943e-05
6.60538e-05
7.63137e-05
6.85736e-05
4.30456e-05
3.26749e-05
1.23563e-05
7.17772e-06
4.93317e-07
-5.21119e-07
-9.9785e-07
-8.96643e-07
-5.52742e-07
-4.09438e-07
-1.35998e-07
-7.14271e-08
3.73786e-09
1.1919e-08
1.25388e-08
1.04639e-08
-1.50072e-08
5.28371e-09
3.42872e-09
7.02064e-10
2.11606e-10
-1.97575e-10
-1.86317e-10
0.187114
0.125227
-6.39227e-12
-1.22456e-10
-8.82652e-11
-2.80179e-11
-1.39245e-11
-1.5478e-10
-4.53968e-12
0.144864
0.0981591
2.28677e-06
1.45963e-12
2.55356e-12
-3.66955e-12
-3.33072e-12
-8.74977e-13
-4.47398e-13
0.109394
0.074847
2.19933e-12
1.70833e-12
-3.35436e-12
1.40279e-12
4.32157e-14
1.25967e-13
6.85579e-13
3.77853e-13
0.0807581
0.110634
0.0555888
1.9185e-14
-2.17161e-14
8.95002e-14
9.05788e-14
1.0656e-13
2.88041e-14
1.66852e-14
-3.48341e-14
-2.74553e-14
-3.24713e-14
-2.01395e-14
-7.39783e-15
-3.78328e-15
-1.35284e-14
-1.68555e-15
3.65238e-16
3.86409e-16
-5.55332e-16
3.27372e-16
1.97805e-16
1.25839e-16
2.49427e-16
7.63535e-17
1.04612e-17
1.86129e-18
4.02778e-17
-1.64402e-18
-3.09548e-18
0.0582157
0.0402763
1.86366e-17
-2.23552e-18
-9.66014e-19
6.01749e-16
-2.20555e-15
0.0409195
0.0285235
0.0263864
0.0188044
0.0162272
0.0116989
-1.85096e-15
-1.99993e-15
4.85626e-15
0.00935069
-5.26872e-19
-2.83206e-20
0.00682946
-6.79564e-16
-3.99108e-16
0.0197441
0.00504335
-2.3891e-17
4.29493e-17
-1.44403e-16
6.88752e-17
3.15887e-17
3.89697e-17
1.56062e-20
3.56581e-20
-5.97122e-11
7.65969e-17
1.11746e-16
0.00373864
-0.00179599
-0.00467444
8.43965e-07
2.21558e-06
9.53445e-07
1.94757e-06
9.72749e-07
1.52494e-06
9.01295e-07
1.07047e-06
7.60148e-07
6.81216e-07
5.71052e-07
3.17649e-07
3.81582e-07
-4.95496e-08
2.32822e-07
-3.86406e-07
1.06679e-07
-6.67693e-07
-1.25246e-08
-8.70845e-07
-1.14297e-07
-9.8351e-07
-1.92469e-07
-1.00302e-06
-2.43176e-07
-9.46269e-07
-2.65187e-07
-8.30815e-07
-2.62875e-07
-6.83793e-07
-5.06864e-08
-2.39995e-07
-5.26969e-07
-2.03951e-07
-3.81789e-07
-1.62645e-07
-2.56603e-07
-1.21372e-07
-1.61686e-07
-8.52637e-08
-9.27954e-08
-5.54234e-08
-4.7944e-08
-4.43279e-08
-6.18346e-10
1.87581e-07
2.03885e-07
2.35957e-08
1.94394e-07
7.76207e-07
6.23169e-07
1.69935e-07
4.78923e-07
1.45258e-06
1.03327e-06
3.54028e-07
7.12539e-07
-4.55597e-08
2.52596e-07
4.7713e-07
1.2004e-06
7.63053e-07
3.10663e-07
4.7291e-07
1.05529e-06
6.26147e-07
1.27865e-06
7.29402e-07
3.63115e-07
4.07497e-07
7.56355e-07
4.09373e-07
2.22908e-07
2.1789e-07
1.1959e-07
1.13927e-07
6.29843e-08
5.84759e-08
7.14026e-07
3.26351e-08
2.94211e-08
1.66229e-08
1.4521e-08
2.37459e-08
1.13452e-08
7.0331e-09
5.3204e-09
7.90337e-09
3.34313e-09
2.4498e-09
-1.55135e-06
1.56001e-09
1.10792e-09
2.54573e-20
1.068e-20
1.78926e-20
7.14854e-10
0.00254463
1.27208e-21
-0.00401061
-0.0048755
6.53259e-17
1.30073e-16
0.0019185
3.48107e-21
-0.00524112
-0.00478051
4.92279e-10
3.21784e-10
2.12784e-22
-5.26083e-22
4.86225e-19
1.7301e-08
0.0011992
-0.00567658
-0.0043347
4.21368e-17
1.25332e-16
-3.8097e-22
-1.77314e-22
-0.00562477
-0.00366737
2.1497e-10
1.42335e-10
1.96852e-10
0.000922177
0.00140267
1.33685e-08
-0.00534765
-0.00291277
-0.00469985
-0.00216631
-0.00091112
-0.000545582
-0.000100324
-1.03677e-05
-0.000287435
3.82708e-05
6.01023e-05
5.40137e-05
3.67766e-05
2.59922e-05
1.0439e-05
5.51937e-06
1.69419e-05
5.24142e-07
-4.18281e-07
-8.00806e-07
-6.98368e-07
-4.37911e-07
-2.80358e-07
-9.00809e-08
-3.60359e-08
7.77979e-09
1.19191e-08
-6.26734e-09
9.95061e-09
1.08371e-08
7.14715e-09
2.06834e-17
9.15569e-17
0.000526166
8.81898e-11
0.00068609
0.000995764
-3.4882e-06
6.1886e-11
-1.03879e-22
-8.5765e-24
0.000494689
0.000687152
3.88287e-11
1.1298e-10
8.53783e-09
1.01139e-08
5.05689e-18
-3.19176e-18
4.97069e-17
0.000346166
0.000461391
2.6457e-11
1.68066e-11
3.0273e-10
0.0307329
-1.20162e-06
-5.63415e-14
1.22102e-07
2.34903e-20
3.69652e-26
5.32702e-24
7.08148e-24
2.59867e-24
-0.00562856
4.22055e-24
0.000235383
0.000301696
5.98978e-09
8.82755e-09
-3.58601e-18
-1.85727e-18
-9.34223e-07
1.11246e-11
7.15375e-12
1.55332e-24
1.56439e-25
0.000164281
0.000155701
0.00019232
-0.000871012
0.217306
3.68633e-09
6.54292e-09
1.21745e-09
-1.13795e-18
-1.87742e-19
0.00010029
0.000119638
0.000215004
0.000129757
0.000221091
7.26378e-05
4.60199e-12
2.99535e-12
4.31629e-12
2.62649e-26
-6.95523e-26
1.82906e-12
1.18723e-08
5.45305e-09
7.67935e-05
4.31253e-05
1.03125e-20
5.8651e-20
1.92399e-09
4.39444e-09
-0.0027903
5.72862e-14
1.23409e-12
2.44966e-12
7.62528e-13
-4.92524e-26
-2.05408e-26
-6.37167e-11
0.000641901
0.000250577
0.000278332
8.82796e-05
8.13117e-05
1.63809e-05
6.19015e-06
-5.69852e-06
-1.28648e-05
-8.01988e-06
-1.09556e-05
-4.98853e-06
-5.67419e-06
-1.84636e-06
-1.64487e-06
-3.99053e-06
4.44776e-05
2.50618e-05
5.68988e-20
2.24221e-20
8.46883e-20
8.60224e-10
2.57969e-09
6.41328e-09
4.50406e-09
3.99365e-09
5.10989e-09
-1.59827e-08
-2.61472e-09
-6.43093e-08
-2.86314e-08
-1.3865e-07
-7.78161e-08
-1.99026e-07
-1.29488e-07
-1.58872e-07
-1.48876e-07
2.51208e-07
3.14581e-09
1.20955e-06
4.89818e-07
2.56324e-06
2.72229e-06
1.37897e-06
2.33971e-06
1.07987
1.58184
-3.054e-07
-8.43912e-08
7.99871e-09
1.79965e-09
2.16445e-16
1.70117e-16
3.04621e-16
3.22571e-16
-3.36668e-16
3.22419e-16
-3.91857e-15
-1.41393e-15
1.30713e-15
5.00449e-13
3.12841e-13
-1.19064e-26
-3.28017e-26
-4.149e-28
-2.02305e-27
8.56315e-28
1.1275e-27
1.15595e-07
2.20096e-07
4.08834e-06
2.44335e-06
3.42158e-09
4.15847e-09
4.0751e-20
8.30702e-20
1.52465e-07
2.52092e-05
1.42857e-05
1.34778e-05
4.00005e-28
1.17022e-07
1.42315e-07
7.70626e-06
6.09023e-28
4.57785e-06
3.12795e-06
1.99802e-13
1.26345e-13
2.32391e-06
6.4645e-28
6.88003e-06
8.78431e-08
5.16808e-08
4.69837e-08
1.5465e-07
3.74876e-08
1.45864e-07
2.25826e-08
-2.05948e-09
-8.24515e-09
5.26803e-09
-1.35347e-08
-1.14923e-08
-1.62625e-08
-2.6267e-08
-1.76997e-08
-3.62028e-08
-1.72215e-08
-5.27173e-09
-3.54629e-09
-1.49636e-08
-1.66743e-09
4.82727e-10
9.28625e-10
3.96385e-11
1.14055e-09
5.22113e-10
4.68587e-10
1.20916e-10
6.3568e-11
1.28445e-09
-9.61485e-12
-2.1599e-11
-1.31338e-11
-1.24572e-11
-2.73211e-11
-1.08509e-11
-2.63151e-12
-1.24132e-12
-2.64811e-11
-5.75112e-09
2.9649e-13
5.10812e-13
-1.27753e-11
7.98012e-06
4.31635e-06
2.1205e-20
6.70755e-20
9.83498e-07
2.17362e-06
-3.50139e-06
5.56736e-29
7.85554e-14
1.15106e-13
5.02432e-14
7.51522e-14
3.0224e-14
2.72955e-13
2.43919e-13
1.96902e-10
8.16447e-10
4.36763e-06
2.37211e-06
8.01268e-21
4.2412e-20
1.37054e-28
4.2155e-14
6.89774e-14
3.72841e-14
1.95323e-13
1.11377e-14
1.2845e-13
-6.77357e-15
-1.04441e-14
-9.75634e-15
6.79924e-14
0.49682
0.54935
0.669348
0.69163
0.848444
0.80335
1.00203
0.843834
1.07654
0.824535
1.06223
0.760751
6.60936e-12
-1.62216e-12
-2.51769e-12
-0.00239495
-8.54754e-06
-2.32794e-06
1.94779e-06
3.62965e-08
1.33735e-06
7.28431e-07
-4.17977e-06
-1.2545e-06
7.16133e-07
-1.42405e-07
-4.65843e-06
-1.78824e-06
-8.94962e-06
-4.11739e-06
-5.37377e-23
0.622306
-1.25771e-05
-6.44007e-06
-3.79476e-15
-2.54365e-15
2.54321e-12
-1.52919e-12
3.04227e-14
-2.43509e-16
9.59265e-17
1.00992e-13
-1.66548e-29
1.71464e-14
7.34794e-12
-1.62462e-13
0.994608
0.64933
-1.93368e-10
-7.97971e-11
-1.42291e-05
-7.81322e-06
-5.69646e-07
2.34184e-06
1.27972e-06
3.32045e-20
4.34527e-21
1.0485e-20
-3.25576e-22
1.50856e-21
-5.55116e-22
-4.06959e-22
-2.89208e-22
-3.37413e-22
-8.33287e-23
-1.55328e-22
-9.52975e-24
-3.76231e-23
4.10663e-24
-2.04819e-24
2.88064e-24
-2.90865e-23
2.55427e-24
-1.46094e-23
2.61817e-25
-3.15073e-23
1.20691e-24
5.88818e-25
-5.13946e-24
-4.6058e-23
4.19911e-26
-5.67363e-26
-1.3041e-23
-4.66166e-23
-4.04875e-26
-3.15556e-26
-2.11603e-23
-3.44338e-23
-7.93391e-27
1.87842e-09
2.4129e-10
3.36043e-09
-1.8125e-27
4.06961e-22
1.82639e-20
-1.72837e-29
1.20424e-11
1.5068e-12
-8.61754e-13
-4.30526e-13
-5.57599e-13
-4.03004e-13
-2.19252e-13
-2.21734e-13
-5.54586e-14
-7.30491e-14
-6.40419e-15
-1.46533e-14
1.90505e-15
-5.82861e-16
-2.10856e-14
1.65935e-15
-3.19461e-15
-2.4338e-14
-5.50882e-15
-2.35965e-14
-6.9994e-15
-1.89928e-14
-7.24556e-15
-1.20854e-14
-6.46093e-15
-6.65967e-15
-1.25774e-15
-4.61666e-15
-1.97575e-15
-2.64634e-15
2.33031e-15
-1.24068e-15
5.74562e-15
3.37127e-15
-8.42074e-17
7.99655e-15
3.5697e-14
3.0557e-14
8.6078e-15
2.3088e-14
-1.52044e-15
3.24704e-12
4.07665e-14
1.98929e-14
1.44245e-14
5.57328e-15
7.43199e-15
-5.51702e-15
3.21735e-15
-1.26691e-14
8.28378e-10
5.26243e-09
-1.27368e-14
2.23428e-14
3.80116e-16
-1.61854e-14
-7.94555e-14
-6.57992e-14
8.0397e-28
-1.65908e-14
-4.84454e-14
-1.14325e-13
-5.92436e-14
1.7979e-16
1.65062e-16
2.67454e-16
1.41038e-16
2.98675e-16
1.08012e-16
2.02363e-17
6.07173e-18
-4.53781e-18
-4.64429e-18
-2.61379e-18
-4.04682e-18
-1.49108e-18
-8.93372e-19
-3.30707e-18
-4.17938e-19
6.98545e-20
1.01219e-19
-1.14616e-19
9.47773e-20
4.1544e-20
2.78009e-20
7.70515e-20
1.54921e-20
-1.79973e-23
-1.46203e-21
-2.27565e-23
3.45488e-24
-3.17526e-14
-2.67727e-14
5.51902e-16
4.10318e-14
3.72868e-13
3.58532e-13
6.05918e-14
3.03061e-13
1.06118e-12
7.13032e-13
2.32698e-13
4.31889e-13
8.27584e-13
3.65607e-13
2.39258e-13
1.3996e-13
1.15012e-13
2.13093e-14
-4.10787e-13
-4.43118e-13
-3.78144e-14
-4.01162e-13
-1.81475e-12
-1.29696e-12
-4.2602e-12
-2.60882e-12
-8.68929e-13
-1.50275e-12
-5.48111e-13
-8.0608e-13
2.98235e-28
-1.70907e-26
-1.88431e-10
-1.22419e-10
-8.14387e-11
-2.36892e-11
-7.94439e-12
2.7799e-12
3.16152e-12
2.19091e-12
1.4589e-12
4.3855e-13
1.41516e-13
-4.61823e-14
-5.02029e-14
-3.36248e-14
-2.11558e-14
-4.16911e-14
-1.01636e-14
-2.82227e-14
-1.36214e-15
-3.81809e-15
-1.61349e-14
6.01292e-20
7.42844e-12
-5.78498e-06
2.52707e-15
-1.76449e-23
7.12002e-23
9.19302e-15
-6.44842e-30
5.28865e-28
-5.19381e-24
1.23093e-06
2.09882e-06
6.77507e-07
6.63551e-07
3.51959e-07
8.68821e-28
1.00566e-27
3.94531e-28
-5.95083e-16
-7.07086e-15
-2.2063e-21
4.26111e-21
-1.5802e-21
-1.09136e-29
-6.79388e-30
1.53471e-16
-1.15644e-21
-9.06006e-22
-3.24955e-13
-4.01494e-13
-9.41591e-06
-6.9214e-06
-6.38703e-12
-2.34941e-05
0.864464
1.26408
0.50527
2.30673e-15
8.19775e-16
6.67306e-16
9.1946e-17
1.85568e-18
-3.59649e-17
-5.45095e-17
-2.40763e-17
-2.19202e-17
-6.27803e-18
-7.76781e-18
-8.19186e-19
-1.70564e-18
1.38345e-19
-1.3047e-19
1.34269e-19
-5.04797e-24
0.0138198
-1.0859e-30
-4.10947e-31
-2.06305e-17
1.11772
1.56059
1.76579e-09
6.9009e-09
-1.81347e-13
-1.8473e-13
-2.52281e-13
-7.5754e-14
1.12072e-14
-2.53987e-22
-1.15335e-22
-7.47438e-14
1.40611e-15
2.82607e-13
2.48983e-13
2.80147e-14
1.91029e-13
3.28104e-07
7.53992e-20
3.08581e-29
8.75452e-28
4.23934e-22
4.1834e-05
-2.19976e-07
-7.91552e-08
2.85213e-10
0.122003
0.443688
5.88421e-05
-7.24837e-15
-0.000120591
-6.39923e-22
1.78093e-06
-4.04957e-06
-4.29174e-06
-2.03363e-06
-2.35984e-06
-2.01873e-17
-1.15199e-11
0.360014
6.86662e-15
3.72324e-15
2.70818e-15
-7.76653e-18
3.13272e-15
1.43607e-15
1.71036e-15
1.02037e-15
-2.48215e-15
-5.41593e-16
-9.57152e-15
-3.51232e-15
-1.68296e-14
-6.75507e-15
-1.68255e-14
-3.73317e-14
-2.0781e-14
-3.18692e-14
6.56099e-14
2.20966e-13
1.61352e-14
2.05127e-13
7.31837e-14
3.28767e-13
1.28918e-13
3.55209e-13
1.53599e-13
2.86606e-13
5.99536e-13
1.29754e-13
1.17391e-13
-1.08218e-13
4.91774e-14
-1.81138e-12
-5.40864e-12
-9.49251e-12
-2.44468e-11
-1.09566e-17
-3.57567e-12
0.00320854
1.46103e-05
-0.00313595
1.40325
1.87326
1.71102
2.18597
2.02687
2.47953
-1.2231e-11
1.07297e-06
1.69254e-06
-9.55769e-07
-1.1824e-06
1.81892e-28
1.51987e-29
-2.04218e-21
-1.68895e-21
3.47791e-20
1.26908e-20
5.84727e-16
-2.25558e-15
6.20303e-16
9.25443e-29
1.96838e-31
1.49325e-31
1.74374e-07
1.83694e-07
1.15397e-28
6.74944e-20
1.77242e-23
-1.07082e-13
1.48475e-15
1.05218e-15
1.92857e-06
-1.18919e-11
-4.79551e-12
2.33342
-1.75542e-06
-1.13064e-06
-1.82333e-14
-1.8716e-14
-4.27102e-22
3.15432e-14
1.34708e-13
0.244644
0.163523
3.29125e-07
1.25332e-12
1.05448e-19
6.35754e-20
2.2869e-23
2.73214
0.00440977
0.000294512
8.39869e-07
1.21321e-06
-1.56158e-21
2.6685e-14
8.9429e-14
5.83144e-16
4.02803e-16
6.25192e-32
3.88616e-32
0.092886
0.0567746
-0.00308262
2.96974e-09
7.88468e-09
-2.48344e-11
9.09978e-08
-1.0888e-29
5.34102e-20
-3.26894e-21
1.53912e-07
1.22766e-23
-4.2299e-07
4.11249e-16
1.58654e-16
-1.06504e-29
9.42788e-08
-3.69932e-11
0.023929
0.0121289
0.00132312
1.67012e-13
-1.65308e-11
1.97858e-14
5.65986e-14
3.75156e-30
-1.54518e-07
-4.43168e-07
-1.1676e-11
-4.98064e-12
-5.79372e-23
2.61054
-0.000809212
0.00533615
-0.00295768
6.58485e-05
2.10933e-13
1.23221e-13
1.9391e-20
1.2591e-20
5.27331e-16
3.22428e-20
-9.10263e-20
4.66868e-08
-4.45719e-30
7.70943e-16
1.71125e-33
-5.95462e-35
2.35076e-32
-6.82365e-34
1.31353e-32
1.00492e-31
3.3719e-19
8.7461e-24
1.5379e-24
2.93726
-9.43054e-11
-9.85088e-11
4.57947e-11
-6.99095e-34
6.16789e-33
-6.67945e-34
3.44069e-14
6.98767e-14
2.25632e-16
1.51979e-16
2.53844e-16
-1.52571e-14
2.21141e-14
9.07467e-13
1.73864e-19
1.46094e-19
2.57314e-20
9.18401e-20
-1.99978e-05
-1.52705e-11
-6.10223e-11
-4.1327e-11
-1.47647e-10
-1.07764e-10
-3.47403e-10
-2.71211e-10
-7.92615e-10
-6.6096e-10
-1.76203e-09
-1.55937e-09
-3.78127e-09
-3.56794e-09
-7.83923e-09
-7.92121e-09
-1.57699e-08
-1.69856e-08
-3.069e-08
-3.52235e-08
-5.85251e-08
-7.03124e-08
-1.07633e-07
-4.06741e-08
-3.73629e-08
-1.8417e-07
4.73048e-08
5.10482e-07
1.34378e-06
3.46232e-07
3.32869e-06
5.61347e-06
1.24077e-05
7.8697e-06
2.66712e-05
3.36472e-05
6.8261e-05
7.43596e-05
0.000143874
0.000135314
0.000272507
0.000263508
0.000480947
0.000505479
0.000858187
0.000736749
0.00126383
0.00149798
0.00211859
0.00255493
0.00346991
0.00260925
0.0041111
0.00555337
0.00633863
0.00868349
0.00957125
0.00283904
-3.10777e-08
-3.09821e-09
0.0132564
0.0141755
-1.04438e-09
0.00952559
0.013602
0.0205373
0.0189577
0.011403
0.0152038
0.0257551
0.0197346
0.0340947
0.0249199
0.0439498
0.0305936
0.0551322
0.0364909
0.0672699
0.0422526
-3.44277e-10
0.0797846
0.0109975
0.0474519
0.0179754
0.00824155
0.0541331
0.0919257
0.0516324
0.0231907
2.26899e-05
5.81657e-07
7.54324e-07
-1.76676e-30
4.76402e-08
5.79068e-17
-5.07838e-18
2.01916e-14
6.22501e-21
8.60265e-17
2.35848e-08
-6.69527e-32
1.02757e-20
-1.67146e-19
5.75478e-22
3.4008e-24
4.37719e-09
7.96669e-09
3.93148e-09
-7.83517e-09
-7.18799e-08
-3.97549e-11
-1.54572e-21
0.0430837
2.88196
-1.27909e-16
1.4433
-0.00165092
0.00171816
-3.36449e-14
0.000909334
-0.000369456
4.06966e-13
2.64895e-14
1.24466e-14
5.63106e-22
1.15262e-21
4.74767e-25
5.53881e-24
-2.94353e-25
1.95536e-06
5.12601e-07
-3.85546e-07
4.37977e-08
-2.56117e-07
-6.97152e-08
-8.65138e-12
-3.91702e-12
2.962
2.83763
4.01418e-22
0.000852721
-2.24143e-07
-7.47547e-08
2.38316e-09
3.50929e-07
-2.04707e-12
-1.73136e-12
-8.17956e-13
-7.44663e-13
-3.21171e-13
-3.10182e-13
-1.23557e-13
-1.24602e-13
-4.6181e-14
-4.86081e-14
-1.67717e-14
-1.85222e-14
-5.9259e-15
-6.90984e-15
-3.62934e-15
-2.03649e-15
-2.53411e-15
-6.49874e-15
-2.48255e-15
-5.09404e-13
-6.80691e-16
-4.50159e-15
-1.84335e-15
-4.14724e-07
2.22801
7.89557e-17
9.03887e-17
2.17106e-17
3.27231e-17
1.51635e-18
7.80815e-05
-0.00234399
0.00399174
2.11094
-2.66721e-21
0.0124411
1.96623e-09
-1.2256e-07
-3.20772e-07
0.023525
0.00880921
0.054369
9.34449e-17
1.45595e-16
2.22386e-13
3.8793e-13
8.93865e-14
-2.97453e-12
1.37931e-11
4.46804e-20
-5.97371e-34
2.92685e-33
2.19521e-08
5.76173e-18
-1.17959e-21
-1.46023e-20
-2.17283e-19
-1.52426e-21
1.0138
5.77166e-10
-7.81131e-11
-4.75526e-11
-0.000102509
-0.000377062
-0.000459794
5.60399e-07
-0.00176041
-1.22899e-05
1.33178e-10
1.12903e-10
-1.14084e-20
1.39521e-08
2.87512e-08
-1.45806e-07
-7.25187e-08
2.37444e-08
1.1761e-08
3.4584e-07
1.91836e-31
-2.73271e-31
1.14593e-31
-1.60435e-21
1.58672e-20
-9.49032e-18
9.15104e-18
-4.44027e-22
-3.89304e-20
-2.1946e-19
-3.02939e-08
0.548742
-0.000140359
-8.94997e-22
-4.9852e-14
-1.36969e-18
-7.12935e-22
-2.60937e-25
-1.04686e-25
-0.000256746
-0.000269878
2.67002
2.66028
4.15171e-16
-3.81494e-07
-5.44686e-07
0.11323
0.00807942
0.00221105
9.84554e-13
2.8633e-14
1.2766e-14
-4.59981e-34
1.46165e-33
1.80543e-32
1.1528e-32
3.14114e-32
2.2063e-32
-7.35407e-32
-3.29342e-32
-6.56364e-31
-3.92852e-31
-1.33808e-30
-8.54364e-31
7.09043e-31
-2.29098e-32
1.76857e-29
8.64341e-30
4.17739e-29
2.4142e-29
3.09896e-29
2.60621e-29
-2.44788e-28
-1.09895e-28
-1.07623e-27
-1.84851e-27
-2.50855e-27
-1.69279e-27
5.37474e-27
1.93138e-27
4.06206e-26
7.40192e-26
1.31955e-25
7.735e-26
-4.37697e-27
-1.58129e-25
-2.24297e-24
-9.91482e-25
-4.95205e-24
-2.72665e-24
-4.75904e-24
-5.85868e-24
3.77476e-23
1.52625e-23
1.58059e-22
2.90291e-22
4.12544e-22
2.55415e-22
-2.45972e-22
-1.01026e-21
-7.53579e-21
-3.3741e-21
-1.43966e-20
-2.6071e-20
-7.79345e-21
-1.62663e-20
-1.15384e-20
2.19211e-19
5.1888e-19
1.28291e-18
2.3356e-18
2.36735e-18
3.10758e-18
1.59232e-18
-1.10852e-17
-2.80601e-17
-9.84789e-17
-1.82303e-16
-2.50971e-16
-3.81274e-16
2.26681e-16
9.91128e-16
-4.24517e-17
-5.28764e-16
2.81064e-15
1.18498e-14
2.19773e-14
4.11663e-18
6.89371e-15
3.93927e-14
5.31373e-14
7.74944e-14
6.83959e-14
1.02333e-13
-1.8062e-13
-5.20225e-13
1.12288e-13
-1.25485e-12
-3.92382e-12
-6.79526e-12
-2.75175e-12
-1.13775e-11
-1.34693e-11
-1.75475e-11
-1.81783e-11
-1.9602e-11
6.36097e-11
1.58855e-10
5.3566e-10
9.17888e-10
-2.68441e-11
1.40096e-09
1.98007e-09
9.1563e-10
1.49052e-09
2.62713e-09
-1.53238e-10
-3.76416e-09
-2.59836e-08
-5.00459e-08
3.12685e-09
-1.03692e-07
-1.60348e-07
-1.86969e-07
-2.34562e-07
-2.3603e-07
-2.6058e-07
4.23371e-07
1.19756e-06
-1.74614e-07
2.68246e-06
7.72348e-06
1.27065e-05
2.01803e-05
2.79884e-05
-1.39387e-07
1.7329e-07
2.73556e-05
2.98076e-05
3.6155e-05
2.25369e-05
-3.16327e-05
-9.89246e-05
1.28491e-31
-2.76745e-22
5.4182e-09
-1.7537e-11
-6.15055e-12
-2.43607e-11
-9.72411e-13
-1.04771e-11
8.37862e-13
-3.42831e-12
8.90904e-13
-4.21558e-13
7.12815e-13
6.52393e-13
5.09143e-13
3.79754e-13
4.83453e-13
-1.73373e-12
-1.67055e-13
-7.12744e-12
-2.73434e-12
-1.41802e-11
-7.36595e-12
-1.7752e-11
-1.17399e-11
2.60546e-12
-9.16677e-12
7.79085e-11
2.20439e-11
2.10406e-10
9.06521e-11
3.34679e-10
1.78482e-10
3.15802e-10
2.31333e-10
-4.15341e-11
7.19684e-22
-1.81472e-21
-2.34223e-15
-1.05838e-15
-7.35366e-16
-4.47531e-16
-4.58879e-15
-2.85975e-16
-1.81691e-16
-1.33775e-16
-7.75034e-17
-4.5098e-12
-7.25278e-12
4.6906e-16
-1.49965e-18
9.95993e-13
2.32062
2.56401
5.23016e-17
7.56599e-17
4.90235e-10
3.4922e-10
3.84591e-07
1.60694e-06
8.6666e-14
-8.75071e-11
4.00829e-17
1.10309e-17
4.42247e-17
-3.50026e-14
0.00145967
1.03527e-13
-1.16729e-10
-1.72031e-10
1.23658e-19
6.96565e-20
-1.09726e-23
3.68276e-23
5.62737e-21
1.56262e-17
4.42547e-17
2.60487e-13
-7.24742e-08
-5.06244e-08
3.26787e-11
1.70595e-31
2.42743e-31
-2.60884e-21
-1.69402e-21
-7.11847e-18
-6.46587e-18
-3.80459e-18
-5.56686e-20
-1.73203e-19
4.23751e-32
1.46166e-08
1.10895e-08
-6.30502e-12
1.6343e-07
1.54491e-07
1.16906e-08
5.80139e-09
-6.50783e-26
-4.05511e-27
-1.59285e-26
-2.94835e-10
5.79044e-11
-2.94273e-19
-9.97813e-20
-1.0077e-19
9.25422e-20
-2.35443e-07
-1.88225e-13
6.76779e-13
4.03734e-14
1.20773e-16
2.05245e-17
-3.68991e-17
-8.70047e-19
9.05739e-17
2.55242e-17
-0.000257943
1.11747e-12
-2.01047e-12
-4.70268e-07
2.45171e-07
-3.99464e-07
7.18982e-29
0.00161248
-0.00148619
-0.000705771
-0.00135321
0.00413471
0.00153173
0.0118215
0.00593382
0.0231963
0.0128183
0.0371761
0.0216448
0.00674026
0.0121347
-2.6926e-10
-3.12378e-10
-0.00038561
-0.000674254
1.42296e-29
-1.31136e-32
1.83689e-17
3.00043e-17
1.48525e-15
7.9544e-15
-0.000107818
-9.46546e-05
-5.7921e-21
-2.75864e-20
-1.81929e-20
-7.46679e-20
-7.2148e-20
4.88708e-12
2.00382e-11
-7.68341e-19
-0.00481729
3.98062e-05
0.000315594
-3.03712e-29
-3.54285e-29
-1.3838e-29
-2.13077e-29
-2.11383e-30
-5.09931e-30
2.18905
2.09734
2.5899
1.48555
-1.52181e-18
-5.92197e-19
-4.5037e-19
0.133641
4.40603e-16
5.71215e-16
3.21838e-15
4.51526e-13
3.50632e-13
9.82375e-13
8.94458e-13
1.03339e-12
1.55262e-12
-4.05057e-12
-6.10451e-13
-2.48135e-11
1.58121e-12
1.38021e-12
1.39692e-12
2.20802e-12
1.17763e-12
2.22708e-12
-1.81523e-12
8.89982e-13
-1.21254e-07
2.82904e-07
1.2571e-07
2.25052e-07
9.47682e-08
1.6461e-07
6.56124e-08
1.10034e-07
4.1372e-08
6.65364e-08
3.79853e-08
2.34346e-08
3.57568e-08
1.03263e-07
5.21831e-08
1.54234e-07
7.2354e-08
2.20821e-07
9.41839e-08
2.62511e-08
2.62105e-08
1.13298e-07
1.99839e-08
1.15892e-07
4.8225e-09
-9.35454e-09
-2.32774e-08
-2.5074e-08
-4.17346e-08
-1.85955e-08
-2.71972e-08
-9.46816e-09
-1.13003e-08
-2.70545e-09
-2.10161e-09
-7.54039e-08
-1.13322e-08
-8.17678e-10
5.86303e-10
1.46227e-09
-2.76752e-09
7.05743e-10
1.00969e-09
-9.45945e-09
1.89649
2.13458
1.49135e-09
2.3505e-09
2.65139e-17
1.85315e-17
2.87028e-14
1.20723e-14
5.43541e-15
4.82228e-15
2.20121e-15
1.82752e-15
7.5241e-34
8.46786e-16
3.47216e-10
3.64315e-10
1.28975e-09
3.16396e-10
4.45935e-31
1.16316e-08
3.83988e-11
-1.50628e-11
2.6211e-23
3.12707e-23
3.5186e-27
6.83343e-32
-5.70641e-20
-2.61825e-22
-4.66523e-20
2.47969e-19
-3.24294e-08
-2.92758e-08
-2.66895e-08
1.95844e-12
5.93126e-13
8.51404e-14
7.60565e-15
-3.70469e-14
-3.39741e-14
1.38852e-27
2.55991e-27
-1.16024e-19
-1.56595e-19
-1.70211e-09
-5.73674e-10
1.13752e-10
-1.29061e-10
-1.65546e-09
-6.3433e-10
-2.7076e-09
-2.02066e-11
0.063171
-1.6221e-14
-1.12557e-14
1.9208e-12
3.85811e-13
0.00333895
0.00652905
2.08468e-10
-8.64544e-11
-5.14278e-11
-7.02535e-11
-1.59578e-10
-8.50974e-11
-2.30917e-11
-1.83386e-11
-8.49612e-11
-9.749e-12
2.02412e-12
5.80052e-12
1.41449e-12
8.64855e-12
3.44041e-12
3.4715e-12
1.06308e-11
2.89618e-12
1.1215e-11
1.91092e-12
1.0024e-11
6.10244e-13
-4.44128e-13
-7.74751e-13
-3.28487e-13
-3.21611e-13
7.50574e-12
-7.51557e-14
-4.04761e-14
-2.67992e-13
-2.81766e-15
1.55639e-14
2.07402e-14
2.87143e-14
2.18237e-14
6.69129e-15
-0.000926104
-0.000608013
1.21918e-09
7.96667e-10
-5.72718e-10
-5.29162e-10
-9.92339e-14
4.5501e-09
1.93685e-09
1.12564e-11
-4.23592e-18
-6.28169e-18
1.05049e-31
2.30796e-31
6.6972e-08
6.68317e-08
5.69536e-09
2.83989e-09
2.69038e-09
1.31175e-09
-8.94063e-22
-1.89945e-22
6.56884e-16
1.36701e-15
2.23155e-20
2.14543e-20
7.78088e-09
-1.33281e-19
8.53334e-22
3.48829e-19
1.5132e-18
1.24442e-18
1.32143e-16
3.53357e-17
6.11366e-08
2.72561e-27
-1.32031e-26
4.97674e-14
-2.0862e-10
5.14237e-20
-4.2868e-09
1.05399e-08
2.12951e-16
2.45235e-08
6.65536e-09
-5.10675e-16
-9.50163e-14
0.00153077
0.00335494
0.0102372
0.005571
0.00163379
0.00291595
5.1331e-12
1.54172e-12
0.0781085
1.30498e-11
5.00841e-12
3.18757e-11
1.46891e-11
7.55689e-11
3.97317e-11
1.74021e-10
1.00844e-10
-3.52687e-11
-7.9488e-11
-8.63395e-11
-7.17732e-11
3.50781e-11
7.48337e-10
3.67115e-10
2.81166e-09
3.47614e-09
6.70858e-09
6.60135e-09
1.30468e-09
-9.13886e-09
-7.06562e-08
-1.04272e-07
-2.70179e-07
-2.95855e-07
-4.85606e-07
-3.6571e-07
-4.06279e-08
1.98356e-09
4.12451e-07
1.27669e-06
-2.01356e-07
-1.40075e-07
2.32983e-06
8.07519e-06
9.90681e-06
3.43983e-06
3.85285e-10
2.42861e-10
8.04457e-10
5.62107e-10
1.59734e-09
1.26142e-09
3.06847e-09
1.87648e-19
2.75378e-10
1.64005e-23
3.21392e-27
1.94471e-17
8.1638e-33
-4.96235e-34
3.75332e-19
7.9206e-19
1.12243e-18
1.55901e-19
8.45556e-24
4.5529e-24
2.49039e-31
4.01708e-19
-6.47284e-19
-6.31158e-18
-6.70448e-18
-1.16729e-18
-5.98852e-18
2.01397e-05
2.02373e-05
2.00972e-14
6.21777e-14
-5.73964e-20
-3.10909e-26
-1.22036e-25
-1.57522e-17
4.78732e-11
1.34521e-10
1.95244
2.45459
5.70966e-10
-1.41435e-21
6.95361e-19
0.0515712
0.00780027
0.00426325
-0.000241411
-0.000125983
-1.85466e-15
-4.10734e-16
1.41757
1.16779e-19
1.20937e-06
6.30845e-06
3.65784e-06
1.76326e-12
2.13229e-12
4.82346e-09
2.74104e-09
5.79417e-09
-0.000243088
0.000951822
-2.00111e-30
1.41301
1.62356
2.33195
1.80242e-09
-1.0933e-09
-8.34374e-10
1.2063e-17
1.4602e-17
2.0226e-14
-0.00132132
-0.000845277
-0.00196617
-0.00110283
-9.30947e-30
1.63749e-12
-2.44368e-05
-3.40561e-05
-1.3567e-05
-7.41955e-05
2.38279e-10