/*--------------------------------*- C++ -*----------------------------------*\
  =========                 |
  \\      /  F ield         | OpenFOAM: The Open Source CFD Toolbox
   \\    /   O peration     | Website:  https://openfoam.org
    \\  /    A nd           | Version:  6
     \\/     M anipulation  |
\*---------------------------------------------------------------------------*/
FoamFile
{
    version     2.0;
    format      ascii;
    class       volScalarField;
    location    "2592000";
    object      Cw;
}
// * * * * * * * * * * * * * * * * * * * * * * * * * * * * * * * * * * * * * //

dimensions      [1 -3 0 0 0 0 0];

internalField   nonuniform List<scalar> 
11831
(
0
0
0
0
0
0
0
0
0
0
0
0
0
0
0
0
0
0
0
0
0
0
0
0
0
0
0
0
0
0
0
0
0
0
0
0
0
0
0
0
0
0
0
0
0
0
0
0
0
0
0
0
0
0
0
0
0
0
0
0
0
0
0
0
0
0
0
0
0
0
0
0
0
0
0
0
0
0
0
0
0
0
0
0
0
0
0
0
0
0
0
0
0
0
0
0
0
0
0
0
0
0
0
0
0
0
0
0
0
0
0
0
0
0
0
0
0
0
0
0
0
0
0
0
0
0
0
0
0
0
0
0
0
0
0
0
0
0
0
0
0
0
0
0
0
0
0
0
0
0
0
0
0
0
0
0
0
0
0
0
0
0
0
0
0
0
0
0
0
0
0
0
0
0
0
0
0
0
0
0
0
0
0
0
0
0
0
0
0
0
0
0
0
0
0
0
0
0
0
0
0
0
0
0
0
0
0
0
0
0
0
0
0
0
0
0
0
0
0
0
0
0
0
0
0
0
0
0
0
0
0
0
0
0
0
0
0
0
0
0
0
0
0
0
0
0
0
0
0
0
0
0
0
0
0
0
0
0
0
0
0
0
0
0
0
0
0
0
0
0
0
0
0
0
0
0
0
0
0
0
0
0
0
0
0
0
0
0
0
0
0
0
0
0
0
0
0
0
0
0
0
0
0
0
0
0
0
0
0
0
0
0
0
0
0
0
0
0
0
0
0
0
0
0
0
0
0
0
0
0
0
0
0
0
0
0
0
0
0
0
0
0
0
0
0
0
0
0
0
0
0
0
0
0
0
0
0
0
0
0
0
0
0
0
0
0
0
0
0
0
0
0
0
0
0
0
0
0
0
0
0
0
0
0
0
0
0
0
0
0
0
0
0
0
0
0
0
0
0
0
6.89142e-77
4.39634e-36
-3.3918e-32
-3.5685e-78
-3.11077e-45
1.11574e-76
-2.4155e-23
4.78778e-75
9.25067e-77
2.63021e-76
-4.48633e-26
3.58684e-40
-6.82019e-18
-3.16333e-75
-2.27318e-54
-2.95976e-78
7.37724e-50
-2.26854e-78
-1.26156e-18
-1.10386e-77
1.9459e-75
-1.76591e-80
-9.74008e-14
1.04917e-62
1.56754e-78
1.28216e-80
-1.06199e-13
1.61555e-57
1.18765e-82
-1.78148e-69
8.03495e-77
-3.93495e-11
4.71202e-83
-3.2868e-64
1.61456e-80
1.42738e-09
1.61048e-84
3.71865e-76
-1.14112e-78
1.33572e-08
2.41234e-85
-1.85682e-69
-4.69625e-83
1.67919e-07
3.49555e-87
-1.13809e-82
1.19083e-78
3.21652e-07
-1.0765e-76
1.29048e-31
-1.08868e-76
-1.54216e-35
1.95902e-87
-1.67726e-73
3.8245e-41
-8.11938e-76
-7.54874e-27
-1.60969e-74
-8.00508e-45
-2.30678e-77
1.32291e-77
2.66898e-87
2.51398e-49
9.4867e-22
-3.04225e-06
2.03091e-77
1.33429e-20
1.29955e-74
6.86841e-90
-2.60243e-78
5.54079e-88
5.72101e-06
1.09115e-89
-2.81174e-87
-1.39425e-80
-1.25739e-06
7.51686e-80
3.31029e-53
1.18745e-81
-1.7816e-60
-4.73194e-66
-1.63871e-81
-4.07728e-58
5.32441e-79
-1.90756e-74
4.33101e-16
-2.11492e-79
7.81874e-78
-3.46919e-16
4.88388e-12
1.47472e-76
2.56969e-12
-9.88118e-83
9.69628e-92
8.05471e-07
-1.30917e-90
1.20803e-91
-7.35102e-82
-3.02384e-90
5.44194e-07
-5.23268e-79
1.60667e-85
1.93777e-84
-1.35793e-67
2.08738e-88
-5.06274e-85
1.25793e-83
5.49888e-74
2.05481e-86
-1.04131e-71
1.45498e-88
-6.07507e-76
2.29822e-76
-5.50717e-33
1.89831e-28
-9.79351e-77
-6.63581e-47
-1.02298e-77
1.12256e-74
7.63485e-30
-1.44608e-76
2.94553e-37
-1.39912e-77
3.49255e-53
-3.36761e-75
-1.93455e-33
1.67239e-37
7.50377e-76
2.79192e-51
-6.42674e-80
6.57216e-80
-5.38636e-78
1.5967e-60
-1.11346e-07
3.11838e-22
6.3396e-74
-5.23379e-43
-2.30508e-75
-7.14653e-21
-1.00857e-73
2.73889e-76
-9.13921e-10
4.7251e-15
2.75588e-84
9.83637e-77
-1.90571e-86
1.36393e-81
2.17561e-76
-1.67655e-79
2.57649e-06
-6.11387e-08
1.79115e-47
5.22153e-07
1.37866e-77
1.74815e-43
-3.43228e-24
3.91813e-74
-5.80747e-78
1.1538e-20
7.77936e-17
-1.58441e-76
-1.18068e-24
-3.82292e-74
3.70866e-07
6.1253e-84
4.35927e-93
2.94945e-08
-1.67167e-92
1.05377e-76
6.029e-76
-2.17201e-76
-1.79601e-75
-1.21915e-74
-1.03563e-73
-2.95905e-73
-2.53503e-72
-5.28086e-72
-4.63326e-71
-5.91525e-71
-5.28179e-70
-5.19788e-70
-4.36634e-69
-4.64587e-69
-3.40364e-68
-2.44566e-68
-1.87981e-67
5.17351e-68
5.67969e-67
8.93486e-67
8.18218e-66
7.75618e-66
6.24264e-65
3.5955e-65
2.72731e-64
-4.63632e-65
-5.7332e-64
-1.09721e-63
-1.01758e-62
-6.5616e-63
-9.38893e-62
-7.11447e-62
-8.64738e-61
-7.2295e-61
-7.95832e-60
-7.03283e-60
-7.29331e-59
-6.67431e-59
-6.67929e-58
-6.24183e-58
-6.06137e-57
-5.79169e-57
-5.45638e-56
-5.31553e-56
-4.86117e-55
-4.81543e-55
-4.2721e-54
-4.31356e-54
-3.65503e-53
-1.55871e-53
-1.31583e-52
-2.98727e-52
-1.09669e-51
-2.38879e-51
-8.91031e-51
1.84201e-51
2.16032e-50
-6.47897e-50
2.35295e-49
3.19816e-49
2.81712e-48
2.35588e-48
2.47305e-47
1.58042e-47
1.23843e-46
4.7933e-47
3.33123e-46
9.6613e-46
2.13545e-45
7.53206e-45
9.38392e-45
-1.07882e-44
-1.03304e-43
3.57738e-44
-9.53563e-43
-8.97597e-43
-7.61251e-42
-8.72512e-42
-6.37361e-41
-3.44785e-41
-2.65295e-40
-5.29752e-40
-2.00716e-39
-6.36373e-40
-4.40195e-39
9.39306e-40
1.08963e-38
-2.65301e-38
1.11573e-37
1.12658e-37
9.50542e-37
1.04152e-36
7.84859e-36
9.44914e-36
6.38395e-35
3.51176e-35
2.74278e-34
5.13159e-34
2.11815e-33
9.44591e-34
7.08362e-33
1.61725e-32
5.25151e-32
2.01888e-32
1.45613e-31
5.0027e-32
3.84821e-31
1.03738e-30
2.78577e-30
7.29759e-30
1.99171e-29
5.06634e-29
1.40554e-28
3.4695e-28
9.7866e-28
2.34228e-27
6.71949e-27
-5.98074e-61
1.55792e-26
4.54699e-26
1.02021e-25
3.12846e-26
3.0305e-25
1.19702e-25
8.1244e-25
2.80126e-25
1.93917e-24
1.97959e-25
5.46856e-26
5.684e-25
3.33639e-25
8.33793e-26
4.02822e-24
9.47674e-25
4.89075e-25
1.10842e-25
6.94593e-24
1.06477e-24
6.22814e-25
1.28024e-25
8.58659e-24
6.87223e-25
1.29432e-25
1.37966e-26
2.71414e-24
6.62747e-25
1.13761e-25
-4.06867e-24
-2.50735e-23
5.51173e-25
8.57868e-26
-1.04524e-23
3.89801e-25
5.45485e-26
-6.77919e-23
-1.66924e-23
2.29067e-25
2.81619e-26
-1.20851e-22
1.05575e-25
1.05052e-26
-1.49386e-23
-1.17825e-22
3.04507e-26
1.11837e-27
7.80464e-28
-2.83618e-28
8.41419e-30
-1.07044e-28
-1.2474e-29
-1.84119e-29
-3.89457e-30
-2.36165e-30
-5.87613e-31
-2.51066e-31
-6.90442e-32
-2.26804e-32
-6.94487e-33
-1.64372e-33
-5.99365e-34
-6.4388e-35
-4.09636e-35
7.51635e-36
-1.2466e-36
2.84202e-36
2.65547e-37
4.52562e-37
8.59085e-38
5.12279e-38
2.83755e-24
1.24175e-38
-1.9239e-24
-8.97926e-22
-8.40211e-31
1.82313e-37
1.38811e-38
-2.02766e-22
-6.67944e-21
4.20899e-23
3.11827e-38
5.17947e-40
-2.80809e-21
-4.82263e-20
-2.82836e-20
-3.39368e-19
-8.06606e-39
-2.21912e-39
-2.39495e-19
-2.32973e-18
-9.97978e-39
-9.25573e-40
-1.85503e-18
-1.55317e-17
-1.36549e-17
-9.98697e-17
-2.49349e-39
-1.24797e-40
4.33677e-19
-9.70375e-17
-6.17971e-16
-6.59484e-16
-3.57665e-15
5.18866e-41
5.78151e-41
1.12536e-42
1.20409e-41
1.5112e-42
1.31657e-42
-4.36602e-15
-2.00027e-14
4.78662e-41
3.2655e-43
-2.78538e-14
-1.08714e-13
1.0279e-43
-1.70626e-13
-5.8541e-13
3.49546e-44
-9.91063e-13
-3.00917e-12
6.40704e-45
-1.25049e-13
-5.35979e-12
-1.45094e-11
-5.29249e-27
2.73826e-45
-2.77117e-11
-6.06845e-11
1.26276e-11
1.31626e-10
2.30632e-10
1.34114e-09
1.10525e-09
5.7865e-09
3.44069e-09
1.66942e-08
7.83345e-09
2.91487e-08
7.77578e-08
1.40914e-07
6.29685e-24
1.04737e-23
1.4524e-24
8.53797e-25
1.00326e-25
-1.30407e-25
-2.76105e-26
-4.29275e-26
-6.6252e-27
-5.273e-27
-6.72202e-28
4.23677e-29
1.41035e-29
1.15599e-28
1.60142e-29
1.81262e-29
2.39555e-30
3.07768e-31
3.26346e-32
-2.17668e-31
-3.0581e-32
2.71947e-30
-3.52294e-32
-5.0959e-33
-1.14269e-33
-1.63392e-34
1.2308e-35
2.9821e-36
3.46603e-07
6.51818e-07
2.79082e-46
7.18596e-36
9.79529e-37
7.5017e-37
9.01093e-38
5.32683e-35
1.75142e-46
1.47334e-06
2.87551e-06
8.73029e-39
-1.66987e-37
-2.28614e-38
-2.95232e-48
-1.2156e-46
-2.39007e-47
-9.01792e-47
5.9481e-06
1.20648e-05
-3.20365e-38
-4.45984e-39
8.11926e-48
-1.33545e-55
-6.76906e-48
-1.32506e-47
-8.02477e-40
-1.15257e-40
2.27058e-05
8.82512e-06
4.79218e-05
1.39475e-40
1.99144e-41
-4.04761e-49
1.64426e-48
9.67776e-40
4.09552e-49
1.79574e-48
2.3728e-41
3.42801e-42
2.8164e-42
4.90087e-43
7.85381e-44
1.16236e-44
6.93989e-44
1.70711e-45
-1.53661e-45
-2.15891e-46
2.48198e-46
-3.03308e-47
-2.91229e-47
-4.1764e-48
-4.21322e-48
-5.83941e-49
4.28278e-49
6.45198e-50
-7.92213e-50
9.49577e-51
1.17894e-50
8.14836e-05
0.000179287
-1.0543e-50
1.78524e-51
2.28371e-52
1.36281e-49
2.70458e-49
0.000273278
0.000628454
0.000315508
0.00115491
0.000424927
0.00163659
1.08349e-50
-1.67778e-50
4.5015e-50
0.000417171
3.72401e-53
-4.41298e-53
0.00169371
-4.82036e-51
-2.39279e-50
0.00204991
0.000233669
-1.82216e-51
-3.03491e-51
-5.82971e-50
-1.81906e-51
-7.97951e-50
2.64872e-52
-7.38514e-54
-5.40908e-54
1.4716e-37
1.32401e-50
2.85881e-50
0.00112564
6.07708e-26
-6.78289e-26
2.52738e-39
-1.4797e-40
2.726e-40
-5.03758e-40
6.35372e-42
-2.15267e-40
-1.07026e-41
-6.89362e-41
-4.92634e-42
-1.91373e-41
-1.59903e-42
-4.86582e-42
-4.4714e-43
-1.15634e-42
-1.14709e-43
-2.46685e-43
-2.70688e-44
-4.79681e-44
-5.87341e-45
-8.7886e-45
-1.23097e-45
-9.94561e-46
-2.08337e-46
-6.42505e-47
-2.89496e-47
1.02396e-47
-2.40297e-48
6.04337e-48
6.21207e-50
1.87084e-48
-8.0177e-49
1.04388e-49
4.77203e-49
3.64562e-50
1.09974e-49
9.67517e-51
2.37595e-50
2.2734e-51
4.895e-51
4.95691e-52
9.71188e-52
1.02646e-52
1.86981e-52
1.62981e-51
2.97269e-52
2.42135e-51
4.22949e-52
5.29976e-53
7.26349e-53
5.48718e-52
9.08893e-53
1.22345e-53
1.4854e-53
1.05127e-52
1.66693e-53
2.39046e-54
2.60643e-54
1.9124e-52
3.79211e-55
4.01602e-55
2.62854e-54
3.93434e-55
6.08792e-56
5.84402e-56
3.62526e-55
5.2542e-56
3.11637e-55
4.41649e-56
7.55434e-57
6.20303e-57
3.43665e-56
4.71268e-57
8.61477e-58
6.41382e-58
1.18561e-58
8.6419e-59
1.61586e-59
1.15436e-59
2.48478e-56
2.18147e-60
1.52587e-60
2.91565e-61
1.99906e-61
9.98448e-61
1.27749e-61
2.59105e-62
1.63095e-62
7.698e-62
3.33854e-63
2.06319e-63
2.28315e-47
4.26563e-64
2.58856e-64
-9.31335e-55
3.70387e-56
2.44589e-55
5.4056e-65
-5.9053e-05
7.96276e-56
-4.8823e-26
-4.9298e-25
8.79903e-50
8.10956e-49
9.17311e-05
4.71205e-55
-1.45317e-24
-2.26518e-24
3.21679e-65
6.78996e-66
1.2646e-56
1.84975e-57
-4.06845e-68
3.96208e-61
-0.000320539
-1.19849e-23
-9.29345e-24
2.19638e-49
3.36795e-48
3.58461e-58
-3.09988e-58
-6.20398e-23
-3.28825e-23
3.96852e-66
8.46268e-67
1.37815e-66
-0.000821906
0.00141017
3.1435e-33
-2.70544e-22
-9.77701e-23
-9.31363e-22
-2.51567e-22
-1.41712e-23
3.54064e-24
8.77172e-24
5.97688e-23
1.92863e-22
2.23856e-22
2.47094e-23
5.83866e-23
3.20999e-24
-7.05347e-25
-1.47817e-24
-9.5989e-24
-3.5079e-23
-1.17848e-24
-2.52962e-24
-1.32554e-25
5.03293e-26
5.86813e-26
3.54172e-25
4.13336e-26
7.86864e-26
3.80802e-27
-1.82737e-27
8.55482e-26
-1.1763e-27
-3.31484e-26
-7.07125e-26
2.42694e-49
6.07322e-48
-0.000336168
1.7273e-67
-0.00167048
0.00778468
-2.96519e-44
1.0465e-67
-5.88367e-59
-4.40078e-59
-0.00266501
0.0332142
2.15757e-68
2.68264e-67
-1.45047e-25
-8.64797e-25
-3.27671e-49
-8.49609e-50
3.767e-48
0.00031336
0.119681
1.28126e-68
2.67394e-69
1.79926e-65
-1.71919e-15
-4.74596e-41
-2.801e-57
-2.63269e-45
-1.23346e-54
-8.51843e-60
-7.21481e-61
-3.95603e-60
5.75239e-61
-2.74024e-22
3.14504e-60
0.0259179
0.370512
-2.99701e-25
-3.24391e-24
-3.30373e-49
-2.08951e-50
-8.53642e-29
1.55229e-69
3.28194e-70
1.06147e-61
7.28914e-62
-0.0159291
0.12728
0.995179
-1.1474e-31
5.00706e-23
-3.23551e-25
-6.02115e-24
1.18244e-27
-1.67646e-50
5.06779e-52
0.438617
2.30784
2.79733
5.20276
4.62141
4.58972
1.8701e-70
3.99638e-71
6.62878e-71
1.38472e-62
1.21811e-63
8.11835e-72
-3.82414e-29
-2.78899e-28
8.35649
7.78519
8.81128e-51
8.97803e-52
1.77066e-25
-5.51751e-24
-4.11528e-26
1.13025e-59
4.83152e-72
1.28781e-71
9.93048e-73
2.49589e-64
-1.3859e-64
-4.49875e-39
-0.000100812
-3.94389e-05
-7.27145e-06
5.76492e-06
2.44156e-06
2.39787e-06
6.71994e-07
1.79306e-07
2.31349e-08
-4.19879e-08
-1.58834e-08
-8.7115e-09
-2.48129e-09
7.86783e-11
6.13513e-11
-3.08235e-08
11.6349
11.1847
1.42369e-51
5.62987e-53
2.5966e-50
2.23747e-24
5.6327e-24
-1.12664e-22
-8.91294e-23
-1.31462e-21
-1.96227e-21
-8.53957e-21
-2.33218e-20
-2.38541e-20
-1.49245e-19
1.87449e-19
-4.15236e-19
4.57441e-18
2.86565e-18
5.25753e-17
6.97547e-17
3.29461e-16
7.64682e-16
9.05515e-16
4.45549e-15
-2.38768e-16
-4.05573e-15
1.13009e-14
-4.09119e-26
2.46113e-26
3.60158e-24
1.64616e-10
4.03225e-11
-4.76432e-29
-2.98444e-29
1.0758e-46
1.29749e-46
1.27325e-45
2.48856e-45
7.52956e-45
3.52246e-44
2.43829e-44
3.24769e-43
-1.16975e-64
5.78935e-73
1.20555e-73
-2.69344e-65
5.13655e-65
-1.73595e-65
-8.59744e-65
-1.21695e-66
-5.60434e-66
1.62334e-11
2.83417e-12
-1.08627e-13
-6.35847e-14
-1.16172e-29
-1.34767e-21
5.65075e-52
2.45011e-50
1.02214e-14
14.0712
13.7061
7.54496
7.04808e-67
-1.14936e-12
-4.06819e-13
9.66007
-2.67826e-67
-1.14198e-12
-1.45226e-12
6.87096e-74
1.44967e-74
-3.77258e-25
3.01078e-66
3.39532
-2.95405e-12
-2.28396e-13
-6.29426e-14
-1.38707e-13
-1.74682e-14
-3.63554e-14
-4.21074e-15
3.80932e-16
1.27673e-16
-7.56875e-16
4.03201e-17
-1.21036e-16
1.21506e-17
-1.71079e-17
3.62951e-18
-1.92811e-18
8.83389e-19
4.48733e-19
1.05769e-19
1.66887e-19
2.02314e-20
-9.46215e-22
-2.28327e-22
3.32011e-21
-5.55265e-23
-8.24806e-23
-1.53059e-23
-2.28384e-24
-3.20219e-25
5.18997e-22
6.63954e-25
1.08672e-25
8.49012e-26
1.53739e-26
1.82152e-26
2.69184e-27
1.19522e-28
2.54627e-29
3.12398e-27
1.31243e-16
-3.71342e-29
-6.94781e-30
4.33754e-25
14.6919
10.5813
-3.84395e-51
-1.84774e-50
-6.67675e-12
-1.41115e-11
-1.58765e-12
3.19367e-67
8.11248e-75
3.69341e-74
1.73009e-75
2.9176e-75
3.49693e-76
-3.74178e-30
-7.1243e-31
-2.00311e-30
-1.22691e-30
14.1942
10.4279
-2.15903e-50
-2.32029e-49
1.53025e-66
5.65496e-76
2.94117e-31
6.39972e-32
-1.31287e-31
1.37844e-32
-2.35521e-32
3.00471e-33
1.49972e-33
3.12814e-34
-4.13085e-33
1.66925e-09
3.09728e-09
6.82143e-10
1.05015e-09
2.39286e-10
3.08878e-10
7.29412e-11
8.05644e-11
1.95913e-11
1.87602e-11
4.7205e-12
3.88807e-12
8.48774e-70
7.1744e-47
4.71232e-48
-1.48963e-18
-1.76483e-11
-7.33204e-11
-1.80053e-11
-1.58634e-10
-1.32825e-11
-2.1215e-10
-6.97505e-10
-1.64268e-09
-1.58501e-10
-2.09773e-09
-5.54206e-09
-1.34956e-08
-6.89604e-09
-3.8385e-08
-1.09638e-59
7.08975e-11
1.16577e-07
-2.84871e-08
6.84817e-36
1.67133e-36
2.29076e-47
1.8364e-48
9.49431e-76
-2.66741e-36
-5.24636e-37
1.33271e-30
1.76757e-68
6.83279e-77
5.13998e-48
5.53671e-49
1.01833e-12
7.17934e-13
-7.36211e-32
-8.63344e-32
1.34046e-06
9.52561e-07
-1.58559e-08
11.2342
8.61167
6.13626e-53
3.28895e-55
3.21008e-54
-2.51368e-55
1.1299e-55
-5.30071e-56
-2.52185e-57
-5.23473e-57
-8.39914e-58
-3.70209e-58
-1.62915e-58
-1.94734e-59
-1.44463e-59
-7.27688e-61
-8.86939e-61
3.3614e-63
-3.26679e-58
-4.47704e-62
-5.62675e-61
-4.53216e-62
-5.40923e-62
4.21862e-63
3.16381e-62
-1.1312e-62
2.63703e-62
2.35047e-63
2.18426e-63
-5.24683e-65
3.50564e-62
7.06767e-65
-1.84227e-64
1.77542e-63
1.52357e-62
-3.21086e-65
-4.4681e-31
-4.71351e-32
-6.71327e-32
-5.66992e-65
-2.63291e-50
-5.13722e-49
7.64305e-68
4.79694e-49
1.16783e-49
4.56001e-50
1.23772e-50
3.12706e-51
1.07954e-51
1.57503e-52
7.58785e-53
1.10908e-54
3.89191e-54
-1.31217e-54
3.04152e-56
-3.05087e-55
-3.14829e-56
9.2748e-56
-3.08278e-56
8.99585e-58
4.14212e-56
2.16433e-57
1.29354e-56
9.3409e-58
3.00573e-57
2.80901e-58
3.67688e-58
5.83424e-59
1.46358e-59
5.10959e-59
6.93031e-60
-1.38505e-59
1.58621e-61
-7.40447e-60
-3.22824e-61
-2.64575e-60
-5.728e-58
-1.61354e-61
-7.88072e-61
-9.80375e-60
-2.05734e-60
-1.91903e-61
-1.79114e-61
1.31474e-61
9.58909e-51
-2.32811e-61
2.95609e-61
-2.05921e-63
1.32047e-61
6.42539e-63
4.14275e-62
2.71904e-63
1.11157e-62
-1.61503e-32
-1.97035e-34
6.31079e-60
1.05066e-76
8.30173e-64
2.71641e-63
3.0847e-62
6.76187e-63
-2.7485e-66
6.3461e-64
1.14295e-63
6.02647e-63
2.83456e-64
-2.4759e-37
-4.92555e-38
-1.00416e-37
-9.60788e-39
-1.88468e-38
-1.84049e-39
1.64916e-40
3.07521e-41
2.82029e-41
5.33008e-42
5.59094e-42
9.93473e-43
6.38919e-44
1.24764e-44
1.82577e-43
2.41426e-45
-1.85199e-45
-3.46266e-46
4.599e-46
-6.42918e-47
-3.57617e-47
-6.69484e-48
-1.18243e-47
-1.24516e-48
-5.76227e-50
-1.12785e-50
1.26668e-63
2.08412e-63
1.27747e-64
-9.89134e-65
-2.52294e-63
-7.14336e-64
-9.26526e-63
-2.09791e-63
-1.75666e-64
-4.48432e-64
-4.73191e-63
-9.32561e-64
-9.18817e-65
-1.68822e-64
-1.33403e-63
-1.79444e-64
-2.72214e-65
-1.43551e-65
-4.21852e-66
3.42197e-69
2.70589e-65
7.9667e-66
3.56638e-67
1.88921e-66
2.22699e-65
4.42409e-66
4.5192e-65
8.3211e-66
8.44313e-67
1.49011e-66
1.55847e-67
2.60272e-67
7.33605e-66
-1.51913e-66
1.63172e-31
4.77704e-32
1.66853e-31
1.25979e-32
1.27549e-32
-1.85797e-34
-4.68917e-33
-6.90823e-34
-1.29747e-33
-6.56736e-35
3.25798e-35
1.35808e-35
6.1735e-35
4.51095e-36
3.61973e-36
9.38475e-35
-7.11822e-36
3.45257e-35
-1.72094e-36
-4.84309e-35
-2.44624e-34
-2.16687e-48
-6.53164e-17
-6.082e-10
1.37985e-64
4.13744e-64
-4.88535e-64
1.27861e-77
3.27733e-67
3.51911e-65
6.12588e-65
7.42538
6.72669
6.04906
4.9057
3.49556
-8.26074e-67
-4.5677e-65
1.05009e-67
-7.03077e-35
-1.01193e-33
-1.26424e-51
-4.16058e-49
2.04181e-51
-1.00861e-68
-2.26284e-69
-1.22555e-36
9.97805e-51
1.87223e-51
2.79597e-68
4.43699e-68
7.55879e-06
8.59462e-06
7.83059e-65
1.0645e-06
1.96722e-13
2.53774e-13
1.17928e-13
-9.42228e-56
-6.10944e-57
-1.20932e-56
-3.89676e-58
1.54814e-57
3.95382e-58
1.94091e-57
1.64466e-58
4.79746e-59
1.159e-59
4.52919e-60
6.53211e-61
3.19984e-61
2.61402e-62
1.88159e-62
7.83603e-65
2.71031e-65
-1.37488e-10
-9.78174e-70
-2.17172e-70
4.13998e-58
5.10624e-14
6.04486e-14
-2.30773e-33
7.66011e-33
4.87979e-69
7.42004e-69
6.40461e-68
1.03184e-68
1.89736e-77
9.75053e-52
1.84649e-52
1.21341e-69
1.64927e-69
1.35366e-68
2.09977e-69
2.59438e-70
3.22457e-70
2.16402
8.81187e-64
1.45858e-66
1.70845e-64
-1.55627e-62
12.0046
2.78412e-19
-6.46537e-18
7.32887e-24
4.88353e-29
1.66152e-29
1.04993e-26
-2.8544e-44
1.40007e-21
3.48398e-52
-2.89216e-39
-2.04608e-08
6.08021e-06
-1.13673e-06
7.25086e-07
5.68971e-66
4.3684e-64
3.81185e-13
8.27856e-78
1.56337e-78
9.91886e-79
9.59872e-68
-9.16094e-64
-1.00896e-64
-3.79701e-64
-4.30706e-65
-1.28604e-65
-3.7616e-66
9.21005e-65
9.06426e-66
8.39373e-65
8.7861e-66
5.024e-65
4.46607e-64
1.49661e-64
1.30635e-63
-9.87509e-65
-1.62325e-63
-3.08152e-66
-3.23883e-64
-3.16843e-65
-2.37022e-64
-2.48003e-65
-1.20578e-64
-1.30268e-65
-3.79038e-65
-3.29459e-64
-4.32165e-66
-3.23678e-65
-1.1705e-64
-2.60304e-66
4.03278e-64
4.13495e-63
3.10165e-63
2.93024e-62
-8.25844e-67
3.2519e-64
-3.11294e-11
1.9068e-34
-2.50273e-16
1.26202e-14
1.38122e-14
2.98335e-15
3.04567e-15
6.77009e-16
6.49139e-16
7.05131e-64
3.58986
2.31464
-2.14292e-06
-4.48609e-06
8.83988e-67
5.47326e-68
1.10298e-49
5.18875e-49
-9.99102e-48
-2.74572e-48
-4.00965e-35
-1.22539e-33
3.33774e-36
2.18967e-68
-9.09813e-72
-2.14273e-72
1.60888
2.14307
6.71471e-66
-2.03806e-64
7.5435e-54
2.88245e-69
1.8982e-79
1.18086e-79
1.96529e-05
1.59339e-63
1.69536e-64
1.47979e-16
3.2076e-05
6.63622e-06
-6.62857e-43
-3.4272e-43
5.13366e-51
4.03747e-71
4.8824e-71
5.0991e-14
1.35735e-13
-1.0946e-43
1.65783e-68
-1.83663e-46
-1.44204e-46
1.5229e-54
1.3393e-16
-1.77243e-10
-1.36538e-11
0.912863
0.211547
3.11103e-49
6.19768e-72
7.3076e-72
2.28777e-80
1.39003e-80
1.38779e-72
3.01009e-73
1.1802e-14
1.29937e-14
-3.0814e-25
1.06139e-35
4.93898e-33
4.03186e-63
1.00478
2.34493e-69
1.71101e-65
5.24069e-64
0.710544
-1.31619e-54
-2.07313e-06
2.63158e-35
2.57011e-36
6.46878e-70
1.13974
-1.69521e-33
-3.83934e-15
-2.83509e-14
-7.14729e-15
-9.15888e-48
6.11022e-63
9.3923e-73
1.08263e-72
2.23686e-69
0.000198389
0.000127854
7.04645e-64
7.62837e-65
5.89127e-61
3.13197e-17
-2.47541e-14
-1.35365e-13
-3.19595e-15
8.77217e-07
8.13397e-72
1.17377e-72
-4.48113e-65
-1.75303e-64
4.95073e-72
2.75179e-65
2.14929e-64
0.541723
-9.6768e-71
3.51801e-80
1.10422e-73
2.55024e-74
6.15013e-74
5.97385e-75
1.08617e-74
6.19271e-72
-3.87309e-62
-2.49681e-55
-1.22332e-55
2.67139e-17
6.09569e-25
4.59526e-25
-8.75424e-49
1.25754e-75
2.04394e-75
1.16459e-76
1.58146e-73
1.68119e-73
2.73113e-81
1.62488e-81
7.88424e-81
-3.39902e-42
-3.48793e-43
-6.18782e-35
-2.15898e-45
-3.16636e-45
9.24198e-47
-1.73676e-45
-1.84389e-34
4.1667e-62
2.74283e-61
4.12801e-61
2.54848e-60
4.03137e-60
2.34872e-59
3.8759e-59
2.14837e-58
3.7216e-58
1.94791e-57
3.50792e-57
1.75145e-56
3.24108e-56
1.56426e-55
2.97323e-55
1.38673e-54
2.70346e-54
1.22063e-53
2.43664e-53
1.06674e-52
2.17569e-52
9.25403e-52
3.91099e-52
3.32615e-51
7.97008e-51
2.80671e-50
1.05058e-50
8.70617e-50
2.35165e-49
7.15545e-49
2.39616e-49
1.93091e-48
5.83561e-48
1.54259e-47
4.71829e-48
3.71118e-47
1.05885e-47
8.18282e-47
2.89304e-46
6.26037e-46
1.6496e-46
1.23789e-45
4.74623e-45
9.19025e-45
2.23423e-45
1.62239e-44
6.75419e-44
1.16493e-43
4.90936e-43
8.27329e-43
1.83403e-43
1.27113e-42
5.80922e-42
8.70047e-42
4.03117e-41
5.88021e-41
2.63539e-43
3.74183e-53
7.91958e-57
2.76241e-40
3.92241e-40
3.98392e-57
7.80147e-41
5.06005e-40
2.58095e-39
3.23292e-39
5.92475e-40
3.66645e-39
2.03437e-38
2.23103e-38
1.25977e-37
1.33547e-37
7.66302e-37
7.86069e-37
4.58261e-36
4.54219e-36
2.69312e-35
2.57273e-35
1.1149e-59
1.55483e-34
1.76702e-40
1.42732e-34
7.27327e-37
6.28343e-40
6.7432e-37
8.80033e-34
7.74514e-34
1.16414e-34
8.25626e-06
-0.0250564
-0.110042
-3.62168e-70
0.531148
2.00362e-36
2.96189e-39
2.29007e-74
9.86926e-46
3.23443e-82
0.25844
-7.21772e-72
1.41469e-65
6.72039e-65
-1.20622e-65
-6.34418e-55
2.55498e-34
2.03449e-33
1.83537e-32
2.87467e-33
4.60575e-33
3.57353e-62
-2.20988e-65
1.22364e-16
1.00447e-16
-6.92887e-52
5.84373e-16
-6.74055e-14
-4.70831e-13
-5.07995e-34
-9.67161e-11
1.45426e-11
8.51887e-72
1.52472e-76
2.64793e-77
-1.17288e-62
-1.49127e-61
-2.35002e-56
-4.79073e-56
-8.43819e-58
0.000570524
0.000608735
2.87799e-05
0.000352465
-3.18066e-05
8.33388e-05
2.80471e-64
3.07149e-65
1.89319e-17
6.4259e-18
6.98201e-57
0.195377
-2.44866e-07
5.35615e-08
5.6144e-08
8.4446e-42
8.28765e-66
3.37518e-66
8.96124e-67
3.69268e-67
9.62027e-68
4.01849e-68
1.02706e-68
4.34647e-69
1.0884e-69
4.67542e-70
1.14684e-70
4.99848e-71
1.20303e-71
5.31714e-72
2.32179e-71
1.25281e-72
5.62787e-73
2.0955e-72
2.22751e-73
1.40106e-67
1.29814e-73
7.67969e-73
8.22412e-74
2.28559e-49
1.25002e-14
2.26826e-38
1.1134e-37
1.90161e-38
9.25191e-38
8.56415e-40
6.83468e-24
1.82921e-29
2.58704e-24
1.99668e-24
-8.86637e-73
9.47678e-05
6.59337e-64
-6.07623e-33
-1.2537e-31
6.02575e-34
8.36462e-35
4.10506e-33
8.98271e-82
4.27969e-81
2.38822e-42
3.52828e-42
-1.49357e-41
5.10644e-62
8.40988e-63
5.17801e-45
1.73241e-76
1.03318e-76
0.214879
3.93604e-39
-8.97767e-67
5.27868e-66
1.39401e-65
1.28692e-66
5.22848e-11
1.44947e-44
-2.78003e-26
-2.37554e-25
4.16608e-11
3.35642e-11
6.69768e-12
0.001339
-1.54243e-13
-1.31879e-12
6.74771e-62
1.08029e-62
-1.21101e-44
6.98217e-08
1.22096e-08
-3.62905e-05
-4.88256e-05
0.218706
0.109457
-0.0566673
3.53813e-71
-5.42675e-71
7.98704e-72
1.49085e-45
2.36743e-44
-4.56381e-37
-1.80949e-36
2.69337e-67
1.44106e-66
9.47503e-67
1.78535e-24
4.40031e-09
-1.32785e-22
-1.81383e-54
1.40054e-55
-8.78048e-40
-7.09326e-67
-1.71271e-58
1.49778e-58
5.3847e-12
8.57522e-13
6.25001e-17
1.1192e-17
-9.0964e-57
-4.89855e-32
-4.60014e-31
1.5198e-34
4.09995e-34
5.21189e-35
6.34165e-41
2.10005e-76
3.53927e-77
3.5487e-77
-5.69708e-77
-6.45504e-75
-1.59951e-75
-1.51706e-74
-3.12468e-75
-8.19869e-76
4.26948e-75
3.51142e-73
7.43626e-74
6.23495e-73
9.71185e-74
-3.47749e-73
-2.07077e-73
-1.05525e-71
-1.96514e-72
-1.39066e-71
-2.03182e-72
1.36281e-71
4.5374e-72
2.12802e-70
3.6118e-71
2.67643e-70
2.12084e-69
1.50723e-69
1.46528e-71
-5.0232e-69
-7.69036e-70
-4.34281e-69
-3.92888e-68
6.78493e-68
1.61778e-68
3.46443e-67
3.12295e-66
4.95007e-66
3.43118e-67
-5.67285e-66
-7.75303e-67
-1.70678e-65
-1.34248e-64
-7.63559e-65
-9.37576e-66
2.1466e-65
1.76705e-64
6.38027e-64
7.76414e-65
2.6832e-64
2.09991e-63
-4.08288e-63
-3.1699e-64
-6.97191e-63
-4.0221e-62
-4.35649e-64
5.88651e-62
4.56076e-61
1.18931e-60
9.60538e-60
4.83608e-60
3.97152e-59
-3.59154e-59
-2.94384e-58
-4.62799e-60
-7.53147e-58
-6.21492e-57
-2.80102e-57
-2.33459e-56
5.1739e-56
4.33689e-55
5.48677e-55
5.1521e-54
5.44906e-56
3.52358e-54
4.43682e-53
1.15193e-52
6.3307e-52
3.2405e-58
4.58554e-52
3.76034e-51
-1.14222e-51
-8.79695e-51
2.25025e-50
-6.30945e-50
-4.52398e-49
-3.56656e-48
-4.40209e-49
-2.79027e-47
-6.67072e-47
-5.29649e-46
-2.17356e-46
-3.993e-45
-2.99316e-45
-2.419e-44
-2.92704e-44
-1.91206e-43
3.70551e-44
3.82747e-43
1.29997e-42
1.08726e-41
-2.07321e-43
9.4711e-42
7.07357e-41
1.34272e-42
9.03844e-41
5.4027e-40
1.70688e-40
8.22494e-40
-2.17654e-39
-1.85264e-38
4.29295e-39
-2.88539e-38
-2.32439e-37
-1.30974e-37
-1.00078e-36
-1.8167e-36
-7.59653e-36
4.09011e-37
7.56934e-36
-5.69943e-35
9.65738e-35
2.50127e-34
2.05547e-33
1.62188e-33
1.16114e-32
-1.67921e-38
-4.15722e-34
5.21004e-33
3.24591e-32
8.25131e-32
7.31559e-34
-1.0413e-32
-1.09585e-31
1.43048e-72
1.8636e-66
1.58924e-34
-3.34833e-26
-4.20355e-26
-5.93253e-25
-1.06628e-26
-5.71811e-25
8.24333e-26
7.79889e-26
3.08675e-25
1.69298e-24
2.49877e-26
2.5945e-25
3.837e-24
-3.278e-26
2.58006e-24
2.89778e-23
4.33234e-23
1.00088e-22
3.84403e-22
-4.23975e-22
1.49859e-21
-1.29702e-20
6.87869e-23
-1.60526e-19
-1.06566e-19
-9.00927e-19
-1.45629e-18
-2.38082e-18
-9.61695e-18
1.99288e-17
-2.91443e-17
3.79951e-16
1.01864e-16
3.04298e-61
-2.22859e-62
-8.33466e-62
2.61699e-73
2.8235e-74
8.82276e-75
3.05214e-75
2.39445e-72
9.42558e-76
3.28749e-76
9.92222e-76
1.06922e-76
1.03333e-64
9.21852e-64
6.31323e-44
1.05468e-42
2.52882e-41
6.72779e-18
1.41377e-18
4.82476e-82
2.22078e-81
8.31861e-62
1.29644e-62
-0.0314097
-0.139674
1.19044e-43
2.04678e-61
4.41012e-37
1.79369e-38
2.05391e-36
1.12375e-62
-6.11138e-10
-1.42329e-32
1.78079e-60
1.14547e-60
1.47511e-44
2.35426e-43
1.58693e-67
3.0235e-67
3.66754e-67
8.11959e-38
9.36425e-36
1.86417e-23
-2.19724e-05
-4.8241e-05
-1.09442e-17
1.33423e-70
9.65249e-70
5.79785e-46
-4.63704e-47
-9.08723e-37
-1.02594e-35
-4.83397e-38
2.58959e-67
-2.61618e-67
8.48549e-73
4.44386e-10
-1.31675e-09
1.98898e-20
-0.00870175
-0.0227112
0.0807773
0.0414187
2.95209e-59
1.28871e-59
6.48411e-59
3.25912e-15
2.66053e-15
-7.73008e-66
-3.38069e-66
-1.88863e-67
-1.1664e-66
-1.93969e-31
3.00574e-53
-2.2202e-62
8.72805e-62
3.06228e-76
3.3165e-77
1.15511e-77
3.59898e-78
9.73448e-78
1.04687e-78
1.65733e-10
-1.51017e-27
-2.5259e-27
-9.17192e-32
-2.45508e-31
-1.41685e-32
-1.05932e-70
2.38809e-34
-2.75515e-13
-3.11247e-12
-8.3437e-15
-8.11683e-12
-2.4049e-11
-3.2683e-11
-1.29622e-10
-5.92015e-11
-4.11536e-10
3.25798e-10
-4.26327e-10
-1.87489e-09
-4.47253e-09
1.01946e-59
6.2545e-60
-1.53859e-31
-1.22986e-30
-3.53212e-73
1.44433e-75
3.69183e-37
4.18318e-35
7.59185e-73
6.85968e-72
-1.49726e-13
-5.44224e-14
1.09886e-61
2.50069e-60
2.01651e-60
4.16907e-59
6.13674e-59
3.10255e-64
2.72007e-63
6.65918e-64
-2.26372e-24
2.71792e-35
6.20334e-36
-1.15684e-66
-5.46514e-66
-4.46481e-67
-2.01574e-66
-1.13565e-68
-5.92851e-68
3.22627e-17
5.51018e-18
1.95574e-18
1.39322e-26
-1.80746e-40
-8.36361e-41
-1.74252e-41
7.8891e-26
4.32264e-44
1.41025e-42
1.08362e-61
-4.06455e-32
-7.16157e-33
2.60295e-32
4.69557e-33
4.52636e-31
8.13752e-32
5.91633e-31
1.0488e-31
-3.97412e-31
1.45033e-32
1.82118e-32
2.54711e-33
3.09043e-33
4.39168e-34
5.117e-34
-2.86948e-33
7.42103e-35
2.4233e-38
0.647998
0.112924
0.0245823
-0.0346538
-0.0555606
-0.0191304
-0.0159077
-0.00206798
0.000401121
-0.0180068
0.000847116
0.000806699
0.0018578
0.000632298
0.00184668
0.000372557
0.0014259
0.000128781
-3.64294e-05
-3.53865e-05
2.91638e-06
-2.42802e-05
-3.11459e-05
-1.43057e-05
-2.68728e-06
-4.52019e-07
-6.62772e-06
1.41281e-07
2.51289e-07
1.3481e-07
3.15235e-08
7.32352e-09
-2.85345e-09
-1.65898e-09
-2.70617e-06
3.74726e-10
-8.16741e-10
-2.22169e-10
-6.69192e-11
-3.35548e-09
1.26593e-11
7.08693e-12
-5.43058e-10
1.32708e-18
2.87184e-19
1.22833e-36
8.31628e-36
2.46732e-82
5.45487e-83
2.77114e-76
4.48189e-77
5.77216e-78
6.99029e-78
9.10471e-79
1.06304e-78
-2.49982e-77
1.39746e-79
2.87319e-12
1.04077e-12
3.27199e-12
3.47032e-13
1.00857e-68
0.000205765
-3.3736e-14
-1.96163e-14
1.25494e-68
-1.70737e-68
3.51123e-61
3.35528e-73
-2.26434e-43
-6.08156e-44
-7.76206e-68
-3.03814e-67
-6.14743e-06
-2.60318e-05
5.5949e-07
8.25802e-35
1.22843e-35
1.0573e-36
1.88971e-37
-1.82108e-37
-3.05178e-38
8.25955e-64
1.78801e-63
5.40069e-58
1.249e-57
1.17219e-14
2.44362e-14
1.56277e-16
1.48174e-14
9.3575e-14
1.45583e-13
1.64008e-13
-1.53468e-20
-1.2717e-13
-2.01569e-38
-3.41042e-39
-2.70666e-61
6.2685e-61
-5.56489e-09
-2.17596e-08
8.28466e-14
-8.853e-15
-3.4291e-15
-1.13125e-15
-3.5568e-15
-3.50793e-16
3.15062e-17
1.49278e-17
-8.22856e-17
5.88792e-18
2.55145e-18
7.71151e-19
2.1371e-18
2.26957e-19
-1.24871e-20
-5.61453e-21
6.35512e-20
-2.0254e-21
1.28588e-20
-6.71355e-22
2.10976e-21
-2.15355e-22
-8.84895e-23
-2.38115e-23
6.62814e-25
2.75221e-25
3.21604e-22
3.34878e-25
8.95832e-26
8.17759e-26
2.20668e-26
1.59345e-27
2.90078e-28
5.05008e-27
4.97017e-29
-7.38898e-29
4.52956e-14
2.01652e-14
9.53101e-62
1.44204e-62
5.71351e-59
3.32029e-59
1.24304e-24
-1.51151e-09
-2.92303e-10
-2.76111e-15
-4.61849e-37
-1.09956e-35
1.15655e-70
2.20134e-69
-0.000943661
-0.0069471
0.0269676
0.0140769
0.0170172
0.00590667
-3.80391e-46
-3.04538e-47
1.58518e-79
1.18184e-78
1.2594e-43
2.58991e-44
0.000267193
-7.98696e-43
-2.42349e-68
-5.91442e-68
-3.57825e-67
-1.25166e-68
2.72281e-78
1.09751e-81
0.00124543
8.59174e-63
-1.2725e-62
1.11215e-27
5.612e-14
-6.14576e-71
3.06263e-16
0.0307729
1.95675e-80
5.20638e-10
-3.79842e-09
-1.74426e-48
2.127e-68
-1.36186e-08
-7.07306e-08
-4.10231e-08
-2.16869e-07
-1.78009e-07
-7.83604e-07
-2.95971e-60
2.92192e-60
9.71243e-07
-3.03527e-59
1.20955e-59
-3.02706e-58
6.33749e-59
-2.99573e-57
-2.25975e-59
-2.91537e-56
-5.96257e-57
-1.48021e-30
-4.01965e-29
-2.16791e-28
-2.97529e-28
-1.82037e-27
1.22349e-27
2.04072e-28
2.19077e-27
1.46549e-26
3.46997e-27
5.49394e-26
-3.38278e-25
-2.32745e-24
-3.37173e-24
-2.1929e-23
-7.03002e-24
-3.13595e-23
2.98801e-22
2.08154e-21
-5.22525e-25
3.2408e-28
2.3553e-21
1.52768e-20
3.66333e-22
1.39235e-20
9.65236e-20
6.48752e-21
-3.84417e-22
5.90343e-19
-2.79758e-55
-1.09721e-55
-2.64323e-54
-1.53996e-54
-2.45924e-53
-1.8761e-53
-2.2526e-52
-6.37893e-43
7.29372e-12
9.96137e-69
1.78677e-60
1.72007e-36
6.21982e-74
1.85437e-74
-6.65876e-69
1.14796e-68
2.59174e-67
8.67102e-68
-3.34532e-69
-2.28662e-68
4.9429e-68
5.52355e-69
2.4366e-68
2.41025e-67
2.22598e-68
5.18718e-69
-9.02862e-70
-8.89326e-19
-5.87392e-18
2.06566e-72
1.84839e-71
1.45441e-59
-6.21765e-62
-1.26636e-60
1.24193e-78
8.54672e-64
7.39931e-63
9.20227e-19
3.33954e-19
4.46577e-17
2.0037e-65
-5.15196e-65
5.56476e-09
-2.60886e-07
-1.76635e-06
2.81105e-36
6.832e-37
1.73124e-39
3.30036e-40