/*--------------------------------*- C++ -*----------------------------------*\
  =========                 |
  \\      /  F ield         | OpenFOAM: The Open Source CFD Toolbox
   \\    /   O peration     | Website:  https://openfoam.org
    \\  /    A nd           | Version:  6
     \\/     M anipulation  |
\*---------------------------------------------------------------------------*/
FoamFile
{
    version     2.0;
    format      ascii;
    class       volScalarField;
    location    "3456000";
    object      Cw;
}
// * * * * * * * * * * * * * * * * * * * * * * * * * * * * * * * * * * * * * //

dimensions      [1 -3 0 0 0 0 0];

internalField   nonuniform List<scalar> 
11831
(
0
0
0
0
0
0
0
0
0
0
0
0
0
0
0
0
0
0
0
0
0
0
0
0
0
0
0
0
0
0
0
0
0
0
0
0
0
0
0
0
0
0
0
0
0
0
0
0
0
0
0
0
0
0
0
0
0
0
0
0
0
0
0
0
0
0
0
0
0
0
0
0
0
0
0
0
0
0
0
0
0
0
0
0
0
0
0
0
0
0
0
0
0
0
0
0
0
0
0
0
0
0
0
0
0
0
0
0
0
0
0
0
0
0
0
0
0
0
0
0
0
0
0
0
0
0
0
0
0
0
0
0
0
0
0
0
0
0
0
0
0
0
0
0
0
0
0
0
0
0
0
0
0
0
0
0
0
0
0
0
0
0
0
0
0
0
0
0
0
0
0
0
0
0
0
0
0
0
0
0
0
0
0
0
0
0
0
0
0
0
0
0
0
0
0
0
0
0
0
0
0
0
0
0
0
0
0
0
0
0
0
0
0
0
0
0
0
0
0
0
0
0
0
0
0
0
0
0
0
0
0
0
0
0
0
0
0
0
0
0
0
0
0
0
0
0
0
0
0
0
0
0
0
0
0
0
0
0
0
0
0
0
0
0
0
0
0
0
0
0
0
0
0
0
0
0
0
0
0
0
0
0
0
0
0
0
0
0
0
0
0
0
0
0
0
0
0
0
0
0
0
0
0
0
0
0
0
0
0
0
0
0
0
0
0
0
0
0
0
0
0
0
0
0
0
0
0
0
0
0
0
0
0
0
0
0
0
0
0
0
0
0
0
0
0
0
0
0
0
0
0
0
0
0
0
0
0
0
0
0
0
0
0
0
0
0
0
0
0
0
0
0
0
0
0
0
0
0
0
0
0
0
0
0
0
0
0
0
0
0
0
0
0
0
0
0
0
0
0
0
-5.68671e-67
-2.87746e-31
1.30861e-28
4.27494e-65
-3.67914e-40
-5.15477e-68
1.09711e-21
1.90328e-64
-3.64412e-67
3.28143e-66
-1.68107e-23
1.11365e-35
-7.497e-18
1.06634e-64
-2.50918e-48
-4.12306e-68
4.74291e-44
-8.06722e-68
5.14463e-17
4.78876e-68
1.32135e-65
-1.0061e-71
-4.5499e-13
1.68277e-56
1.42613e-70
8.80545e-70
7.84937e-12
-9.3955e-51
3.03445e-73
-5.21443e-63
5.53353e-67
-5.11933e-10
8.76464e-72
3.43495e-57
-1.30731e-72
3.38694e-09
2.03349e-73
-4.95788e-69
4.45272e-68
-2.49058e-08
8.36586e-74
1.5293e-62
8.87651e-75
4.15295e-07
1.10619e-75
-1.07227e-75
2.00227e-69
6.59188e-07
-3.50463e-67
5.63194e-27
-2.06773e-65
-2.36023e-31
1.04907e-75
-6.12288e-66
1.8888e-36
-9.41614e-67
-6.45996e-24
-1.16681e-64
-8.29594e-40
-6.34914e-68
2.04625e-67
7.24666e-78
3.81592e-44
9.98423e-20
-1.96733e-06
-1.04021e-67
-6.30377e-20
-2.22455e-64
5.88733e-78
-3.81734e-71
-1.0963e-79
3.72969e-06
7.15171e-78
1.08559e-78
1.53374e-71
-9.41299e-07
8.21951e-70
1.8599e-47
1.39046e-70
-1.48724e-53
-1.7327e-59
-1.09588e-70
2.31062e-52
7.86734e-69
-1.94576e-65
5.45593e-15
3.61622e-72
-3.93538e-69
-5.89688e-14
-1.99291e-10
-3.95728e-66
1.58423e-11
1.7032e-73
1.10976e-79
6.12728e-07
5.04466e-82
1.25855e-79
-4.25292e-73
-1.19682e-82
6.77433e-07
-1.18433e-70
2.98678e-74
5.39973e-73
1.2382e-59
9.61971e-77
2.34098e-76
1.00209e-72
-1.16172e-67
9.08055e-75
-3.65481e-64
9.59419e-77
-3.04177e-68
1.0356e-66
4.01205e-30
1.56003e-25
-2.53228e-66
-1.30056e-41
-2.13878e-67
2.92463e-65
6.97204e-27
2.77586e-66
1.97228e-33
-9.57294e-68
-7.62104e-47
-1.11481e-65
-5.36495e-30
6.75811e-34
-5.09419e-66
2.04649e-45
-2.33493e-68
3.09356e-69
-4.34269e-69
5.2486e-54
3.92827e-08
5.97055e-20
6.56993e-66
-4.67667e-38
-2.28143e-66
-1.44935e-17
-2.75462e-66
-5.42138e-67
3.24926e-09
-1.05905e-13
-8.81392e-76
6.13197e-67
2.74684e-78
-2.23772e-73
3.76719e-67
-1.99529e-70
2.76561e-06
-5.54209e-08
4.08737e-42
-6.45509e-07
1.77425e-66
2.72445e-38
4.58491e-21
-2.75972e-65
-9.73416e-70
-3.44538e-18
1.97447e-15
-4.73101e-68
-1.3084e-22
9.49541e-66
-6.36311e-07
3.35176e-75
6.2637e-81
3.15499e-08
4.7909e-84
-1.73175e-66
-8.73304e-66
1.30198e-65
9.41935e-65
1.70049e-64
1.32623e-63
7.45723e-64
5.73219e-63
3.33938e-64
1.46966e-63
-3.31816e-62
-2.58007e-61
-4.02412e-61
-3.13794e-60
-1.98886e-60
-2.43758e-59
-1.5759e-59
-1.14254e-58
-3.1186e-59
-1.49258e-58
4.18654e-58
3.37411e-57
4.79343e-57
3.73343e-56
2.55228e-56
1.75565e-55
7.69406e-56
3.53592e-55
-3.77838e-55
-3.21286e-54
1.61119e-54
-2.6441e-53
6.54937e-54
-2.12523e-52
2.1161e-53
-1.68566e-51
2.23009e-53
-1.32307e-50
-1.10713e-51
-1.02687e-49
-1.86858e-50
-7.87317e-49
-2.24796e-49
-5.97261e-48
-2.3518e-48
-4.49102e-47
-2.25104e-47
-3.36512e-46
-1.99799e-46
-2.50576e-45
-1.93758e-45
-1.2764e-44
-1.85466e-44
-8.32208e-44
-1.36196e-43
-5.60151e-43
-1.50182e-43
-6.11183e-43
-3.84469e-42
-2.04274e-42
9.32419e-42
7.20644e-41
-6.82118e-42
5.4865e-40
5.86136e-40
4.1752e-39
2.18839e-39
1.4337e-38
2.92756e-38
9.41331e-38
2.00833e-37
6.08865e-37
3.68389e-38
1.488e-39
3.87437e-36
-2.09385e-36
-1.01122e-35
-7.48147e-35
-2.95104e-35
-5.41755e-34
-4.43137e-34
-2.98283e-33
-3.83521e-33
-1.98106e-32
-9.11298e-33
-5.485e-32
-1.43593e-32
-4.89842e-32
-3.30567e-31
-1.35451e-31
4.15101e-31
3.10128e-30
-1.68043e-32
2.26152e-29
6.51262e-30
1.60768e-28
1.29571e-28
8.41128e-28
1.10774e-27
5.38272e-27
3.10866e-27
1.9105e-26
3.3936e-26
1.15784e-25
5.57222e-26
3.27013e-25
1.38861e-25
6.91797e-25
1.8916e-24
4.07398e-24
1.07797e-23
2.3636e-23
6.04871e-23
1.35023e-22
3.34001e-22
7.59123e-22
1.81378e-21
4.19806e-21
-2.51781e-52
9.67998e-21
2.28219e-20
5.07332e-20
1.90903e-20
1.21876e-19
4.80318e-20
2.61686e-19
8.84581e-20
4.93225e-19
9.63362e-20
3.24074e-20
1.37077e-19
1.57095e-19
4.74545e-20
7.88419e-19
1.60843e-19
2.20244e-19
5.98721e-20
9.83692e-19
9.38015e-20
2.64672e-19
6.5049e-20
7.35674e-19
2.7513e-19
6.16358e-20
-2.00681e-19
-5.78916e-19
2.47011e-19
4.99191e-20
-6.92484e-19
-3.49582e-18
1.87981e-19
3.40603e-20
-1.3102e-18
1.19207e-19
1.90923e-20
-6.97042e-18
-1.38914e-18
6.07944e-20
8.25135e-21
-8.12574e-18
2.24608e-20
2.10471e-21
-6.97615e-19
-5.08572e-18
2.91994e-21
-5.58858e-22
5.00502e-23
-2.92378e-22
-4.2548e-23
-7.03236e-23
-1.71185e-23
-1.19482e-23
-3.4968e-24
-1.6022e-24
-5.34597e-25
-1.75321e-25
-6.67431e-26
-1.46402e-26
-6.84844e-27
-4.85994e-28
-5.18949e-28
1.55805e-28
-6.35062e-30
5.98859e-29
8.43337e-30
1.09731e-29
2.82246e-30
1.44397e-30
4.64726e-31
1.49912e-31
9.85225e-19
5.67715e-32
2.94841e-18
-3.33809e-17
-3.89761e-25
3.33672e-31
1.67044e-32
6.71749e-18
-2.06259e-16
2.6935e-18
-1.97387e-32
-1.34637e-32
-5.76332e-18
-1.21705e-15
-2.91757e-16
-6.86091e-15
-7.90301e-32
-1.1239e-32
-2.83473e-15
-3.70805e-14
-2.85278e-32
-2.24581e-33
-2.01067e-14
-1.94753e-13
-1.23906e-13
-9.82252e-13
-2.79527e-33
1.64416e-34
1.2744e-14
-7.07481e-13
-4.71684e-12
-3.82352e-12
-2.12654e-11
2.01608e-33
4.30467e-34
8.5945e-35
5.48934e-35
1.69815e-35
4.93713e-36
-1.96297e-11
-9.13781e-11
1.23269e-34
2.12562e-36
-9.60938e-11
-3.76956e-10
3.03573e-37
-4.49032e-10
-1.49737e-09
1.91457e-37
-1.98867e-09
-5.76481e-09
5.82121e-39
-2.61326e-10
-8.15009e-09
-2.08467e-08
-4.58639e-21
1.1726e-38
-3.14201e-08
-6.69921e-08
5.91239e-09
8.87787e-08
2.53078e-07
1.1328e-06
1.22477e-06
4.86388e-06
3.79444e-06
1.38334e-05
8.33497e-06
1.85282e-05
4.80627e-05
6.7084e-05
5.30195e-19
6.06313e-19
1.03606e-19
3.39384e-20
3.51155e-21
-1.55613e-20
-3.17706e-21
-3.95764e-21
-7.588e-22
-3.72755e-22
-5.70103e-23
2.86793e-23
7.99693e-24
1.38305e-23
2.61031e-24
1.91103e-24
2.98394e-25
-2.75216e-26
-8.823e-27
-3.67153e-26
-6.40416e-27
-6.54435e-26
-5.83643e-27
-9.47569e-28
-2.0427e-29
-2.27368e-30
6.4509e-29
1.13269e-29
0.000158691
0.000230053
-2.46498e-39
1.22699e-29
2.15592e-30
1.86779e-31
3.56836e-32
6.82638e-29
2.3674e-40
0.000496489
0.000747762
1.17001e-31
-7.93005e-32
-1.4358e-32
-7.16341e-40
-2.46709e-39
-2.33448e-40
-4.08141e-40
0.00146629
0.00229528
-1.50723e-32
-2.74508e-33
-9.4307e-41
5.00396e-47
-1.44744e-41
5.38091e-41
-2.67989e-34
-5.11143e-35
0.0040686
0.00204026
0.00662327
8.18673e-35
1.4967e-35
1.71332e-41
6.72312e-41
4.4127e-34
6.76846e-42
1.1449e-41
1.48222e-35
2.75825e-36
2.71221e-36
5.05989e-37
5.4426e-38
1.0538e-38
9.17086e-38
2.00339e-39
-2.11704e-39
-3.88484e-40
3.7521e-40
-7.01731e-41
-5.03992e-41
-9.1044e-42
-1.25014e-41
-1.65278e-42
1.31147e-42
2.09491e-43
-2.99915e-43
3.37535e-44
4.04546e-44
0.0105414
0.0178789
-5.40664e-44
6.97636e-45
9.53729e-46
4.69939e-43
-1.18442e-42
0.0255263
0.0448904
0.0241423
0.063162
0.0254148
0.0693399
-3.75523e-43
-1.38542e-42
5.27132e-43
0.0202282
1.85072e-46
-1.40053e-46
0.0594383
-1.26285e-43
-1.7326e-43
0.10416
0.00964351
-5.03115e-45
2.70474e-44
-4.23778e-44
1.80469e-43
7.34125e-43
2.02908e-44
-2.60811e-47
-2.31423e-47
3.7029e-31
4.2867e-43
3.95722e-42
0.0333643
-4.91738e-21
-2.545e-20
1.85475e-32
2.11031e-32
4.67654e-33
2.1579e-33
9.40847e-34
-3.0369e-34
1.126e-34
-3.28355e-34
-2.81381e-36
-1.51513e-34
-9.61346e-36
-5.60451e-35
-4.84123e-36
-1.83457e-35
-1.83782e-36
-5.42756e-36
-6.05659e-37
-1.49264e-36
-1.81938e-37
-3.74378e-37
-5.06989e-38
-8.11356e-38
-1.2754e-38
-1.57815e-38
-2.94962e-39
-2.01411e-39
-6.03762e-40
-1.35154e-40
-9.14689e-41
4.12574e-41
-1.03391e-40
-8.88123e-42
2.52534e-41
4.08746e-43
9.08393e-42
5.88487e-43
2.73447e-42
2.444e-43
7.48496e-43
7.71771e-44
1.92353e-43
2.15745e-44
4.71743e-44
3.70545e-43
8.46688e-44
6.11834e-43
1.32824e-43
1.88229e-44
2.82037e-44
1.86828e-43
3.81334e-44
5.86299e-45
7.64282e-45
4.69983e-44
9.10987e-45
1.50495e-45
1.73734e-45
1.24724e-44
2.91364e-46
3.26084e-46
1.84358e-45
3.36069e-46
6.02508e-47
6.05176e-47
3.22344e-46
5.65863e-47
2.85968e-46
4.89645e-47
9.81277e-48
8.28459e-48
3.9172e-47
6.47371e-48
1.38515e-48
1.05849e-48
2.28998e-49
1.71188e-49
3.74425e-50
2.74e-50
2.90168e-47
6.05671e-51
4.34004e-51
9.69371e-52
6.80545e-52
2.89474e-51
4.44741e-52
1.05646e-52
6.77741e-53
2.71043e-52
1.6253e-53
1.0233e-53
9.58817e-40
2.47717e-54
1.53108e-54
-4.36912e-48
-5.09607e-49
-2.52189e-48
3.74151e-55
-0.000556799
3.79462e-49
-6.38661e-20
-9.63243e-20
5.33935e-43
8.03923e-42
0.00590572
1.93705e-48
-3.983e-19
-3.23977e-19
2.27028e-55
5.59994e-56
7.40658e-50
5.46999e-50
-1.52104e-59
1.28539e-51
-0.00568194
-1.69182e-18
-9.40673e-19
1.02806e-43
8.33247e-42
1.09775e-50
4.76561e-52
-6.06095e-18
-2.32121e-18
3.33772e-56
8.30934e-57
1.3258e-56
-0.00955062
0.0316211
-2.48139e-27
-1.73392e-17
-4.99535e-18
-4.47267e-17
-8.21781e-18
-9.80819e-20
2.1293e-18
9.24986e-19
3.24319e-18
1.31456e-17
8.97671e-18
1.07434e-18
1.65635e-18
5.1155e-20
-2.49284e-19
-1.10988e-19
-3.67882e-19
-1.56341e-18
-5.15102e-20
-8.63852e-20
-4.29001e-21
5.61967e-21
3.18412e-21
1.14075e-20
1.52797e-21
2.10637e-21
7.96933e-23
-2.23524e-22
1.22674e-21
-8.45721e-23
-1.21394e-21
-3.03025e-21
-1.81453e-42
-4.18845e-42
-0.00596231
1.98388e-57
-0.0127466
0.112406
-2.1772e-36
1.2225e-57
1.74859e-52
-1.33186e-52
-0.0023318
0.323524
2.94527e-58
3.01437e-57
-3.12561e-21
-1.64237e-20
-8.86765e-42
-8.63203e-43
-5.82733e-41
0.0562671
0.788922
1.7826e-58
4.33547e-59
1.28683e-55
-1.29564e-11
-5.37275e-34
-8.23268e-49
-5.83348e-38
-4.85399e-48
-2.95591e-53
-1.60493e-53
-7.07937e-53
3.45625e-54
-2.87612e-17
1.78794e-53
0.229634
1.66577
-4.67384e-21
-4.27637e-20
-8.1562e-43
-8.40473e-45
-8.33931e-24
2.57651e-59
6.32562e-60
6.50446e-55
5.46421e-55
-0.0527613
0.635019
3.05852
-1.59115e-25
5.8417e-18
-4.07588e-21
-6.44581e-20
1.36574e-22
1.87862e-43
4.03851e-44
1.37845
4.89457
6.8902
9.16951
9.34953
6.84652
3.69533e-60
9.1536e-61
1.49096e-60
1.12151e-55
1.15552e-56
2.17468e-61
-1.48736e-23
-1.44791e-23
10.8408
8.40494
6.587e-44
4.01439e-45
1.39965e-21
-5.75167e-20
-5.02307e-20
2.45796e-50
1.31419e-61
3.3804e-61
3.15036e-62
2.6145e-57
-1.47887e-57
3.1184e-33
-0.00253688
-0.00120742
-0.000354972
6.13433e-05
4.73808e-05
6.68488e-05
2.67628e-05
1.21014e-05
3.35272e-06
-6.56169e-07
-4.13904e-07
-4.54195e-07
-1.63786e-07
-4.72976e-08
-9.54343e-09
-1.16629e-06
11.5415
9.16656
-6.2807e-46
-5.75456e-46
5.29039e-44
1.57862e-20
1.32183e-20
-8.58953e-19
-7.61517e-19
-6.99159e-18
-1.05658e-17
-2.62863e-17
-7.83983e-17
-3.52251e-17
-2.5422e-16
7.54277e-16
-2.46972e-16
1.07028e-14
9.00077e-15
8.0413e-14
1.12184e-13
2.93766e-13
7.37628e-13
4.24714e-13
2.17903e-12
-4.3156e-13
-5.38842e-12
2.16745e-12
-2.37114e-21
1.49308e-20
1.13167e-18
6.39273e-09
3.06809e-09
-5.45021e-24
-1.43515e-24
1.26233e-40
-1.8171e-40
2.78236e-39
1.77544e-39
3.82939e-38
4.88448e-38
3.25991e-37
7.00495e-37
-4.16208e-56
1.87132e-62
4.52744e-63
-2.92146e-58
5.83892e-58
-1.8778e-58
-8.58441e-58
-1.31419e-59
-5.11638e-59
1.75704e-09
6.15168e-10
-7.19208e-11
-5.65608e-11
-9.01382e-25
-8.82262e-18
-1.78044e-44
-6.03589e-44
5.76507e-12
11.4256
9.19659
5.6551
7.13316e-60
1.56413e-11
-1.16209e-11
5.85112
-3.30436e-60
-4.88989e-10
-6.14057e-10
2.643e-63
6.4522e-64
-2.25189e-20
3.08239e-59
2.61645
2.34976e-10
-3.41867e-11
-1.15762e-11
-7.93828e-12
-3.67726e-12
-3.88778e-12
-1.13651e-12
-1.88091e-13
-2.20521e-14
-3.52506e-13
1.74721e-15
-1.10816e-13
1.8962e-15
-3.3819e-14
9.44988e-16
-8.13788e-15
3.79771e-16
4.01566e-16
1.07999e-16
1.39734e-16
2.93388e-17
2.35512e-18
8.41568e-20
8.15437e-18
-5.64436e-20
-3.67855e-19
-8.72752e-20
-4.27062e-20
-8.52107e-21
2.32859e-18
1.19011e-21
4.00227e-22
3.19648e-22
8.1701e-23
1.28732e-22
2.13715e-23
4.68188e-25
-7.0355e-27
4.01197e-23
4.61917e-14
-6.38148e-25
-1.45906e-25
1.25517e-21
8.21739
5.37531
-5.21617e-44
-4.51913e-43
-1.68049e-09
-3.48372e-09
-5.03539e-10
3.35821e-60
3.70618e-64
1.45223e-63
9.12454e-65
1.51387e-64
2.15605e-65
-8.07652e-26
-1.62265e-26
-8.14937e-26
-8.87114e-26
6.4801
4.29879
-5.23225e-44
-8.60297e-43
1.38859e-59
3.42198e-65
1.06323e-27
3.03762e-28
-3.23433e-27
8.36275e-29
-6.96736e-28
2.21446e-29
2.04595e-29
5.0499e-30
-1.71726e-28
2.37006e-06
4.18215e-06
1.23015e-06
1.77987e-06
5.42257e-07
6.55792e-07
2.05785e-07
2.13882e-07
6.89579e-08
6.14031e-08
2.05453e-08
1.55001e-08
1.43597e-59
4.33624e-40
8.72819e-42
-3.3618e-14
-2.55902e-09
-9.26017e-09
-4.16236e-09
-2.06533e-08
-3.16444e-09
-2.4913e-08
-4.98907e-08
-1.07539e-07
-1.91483e-08
-1.31752e-07
-2.28311e-07
-4.72254e-07
1.91025e-07
-8.24039e-07
4.24603e-53
1.73669e-07
6.12227e-06
2.0452e-06
3.53717e-31
8.07629e-32
2.62417e-40
1.58853e-41
5.15718e-65
-1.03098e-31
-2.34097e-32
3.82025e-27
1.62818e-61
4.9147e-66
1.07398e-40
9.40679e-42
5.41098e-09
3.43853e-09
2.58736e-27
-5.07124e-27
3.66487e-05
2.8913e-05
-6.08891e-07
4.51236
3.06059
1.09454e-46
-1.32843e-46
-1.83331e-47
-1.46949e-47
-5.05138e-48
-1.0238e-48
-7.03901e-49
-5.31195e-50
-6.4571e-50
-4.27222e-52
-4.05342e-51
3.95027e-52
-1.61519e-52
9.20329e-53
7.67192e-54
1.09806e-53
1.28752e-50
2.18058e-54
-1.33752e-53
-3.08031e-55
-1.45725e-53
8.23287e-55
5.81109e-55
-9.57474e-55
-6.45061e-54
-1.47609e-56
-2.54856e-55
-7.10969e-55
-7.35521e-55
-3.04199e-56
-3.48659e-56
-2.0504e-55
5.13821e-55
-1.50561e-57
-5.30715e-26
-5.20641e-27
-1.90811e-26
3.1137e-57
3.20442e-45
-5.88382e-43
6.16233e-61
3.33124e-41
3.79788e-42
5.71773e-43
3.30609e-43
1.18299e-44
2.02379e-44
-4.53694e-45
4.39744e-46
-1.30401e-45
-1.55771e-46
-1.72289e-46
-4.47662e-47
-1.63322e-47
-5.91631e-48
-5.17452e-48
-1.2263e-48
-1.49361e-48
5.85165e-49
-1.66901e-49
8.13295e-49
2.00883e-50
4.23881e-49
2.76392e-50
1.5778e-49
1.37067e-50
4.56707e-50
-5.23747e-51
4.99782e-51
9.35785e-51
1.42075e-51
8.66923e-52
2.85745e-52
-1.66857e-52
2.99589e-49
2.46961e-53
-1.57093e-52
-2.40084e-51
-8.68814e-52
-7.13663e-53
-2.66577e-52
1.54893e-52
1.16948e-42
-2.34506e-51
-5.02404e-52
-7.16605e-53
-5.59966e-53
-1.59136e-53
-9.56997e-57
-1.82644e-54
3.35499e-54
-2.96174e-27
-3.17505e-27
-1.67892e-51
7.45285e-66
-4.27031e-56
1.61136e-54
2.09841e-53
6.54757e-54
7.11644e-58
5.7569e-55
1.83443e-54
1.63071e-53
3.47074e-54
-1.34472e-32
-3.04216e-33
-5.35393e-33
-6.91595e-34
-1.22664e-33
-1.57617e-34
-2.80674e-36
-6.69747e-37
1.9895e-36
4.57117e-37
-1.6047e-37
1.04423e-37
4.57623e-38
1.05898e-38
2.37511e-38
2.43951e-39
-7.05092e-40
-1.60794e-40
5.60098e-40
-3.63057e-41
-2.14337e-41
-4.86247e-42
-8.10931e-42
-1.0932e-42
-4.32583e-44
-1.05358e-44
-2.6165e-57
5.93609e-55
4.55869e-55
6.36186e-55
1.8224e-54
-8.53992e-56
-5.41578e-54
-2.03442e-54
-1.25413e-55
-6.26118e-55
-6.60437e-54
-1.69588e-54
-1.73195e-55
-4.15885e-55
-3.56138e-54
-7.59588e-55
-9.65517e-56
-1.45778e-55
-2.07764e-56
-2.62012e-56
-7.7611e-56
-1.66958e-57
-3.05796e-57
2.4557e-57
4.56975e-56
1.29297e-56
1.31085e-55
3.08535e-56
3.28779e-57
6.95724e-57
7.81958e-58
1.51585e-57
5.77497e-59
-2.32473e-57
3.06201e-26
7.42342e-27
1.37302e-26
9.96936e-28
9.93057e-29
-1.77054e-28
-7.91937e-28
-1.00788e-28
-1.03175e-28
-1.90789e-30
1.64976e-29
4.51562e-30
7.90819e-30
5.41386e-31
-3.47803e-32
6.43737e-30
-1.52096e-30
-3.25627e-30
-3.52322e-31
-4.39146e-30
-2.58903e-29
-1.78957e-42
-6.81182e-14
-5.69168e-08
-4.96529e-55
3.55522e-56
3.09895e-55
1.07874e-66
2.37464e-60
2.43511e-58
-2.75602e-56
2.76256
2.77105
1.94536
1.69882
1.09565
1.41388e-57
1.61563e-56
8.82301e-59
-4.30951e-30
-5.48302e-29
1.608e-43
5.57942e-43
2.67272e-44
-9.64846e-62
-2.39114e-62
-5.98096e-32
1.07717e-44
2.41801e-45
1.77385e-58
3.20812e-58
0.000119575
0.000138756
2.67635e-55
3.27214e-05
1.26025e-09
1.7885e-09
6.67387e-10
-1.69646e-48
3.34333e-50
8.2306e-49
1.7921e-49
6.13815e-49
5.37284e-50
8.66248e-50
2.63661e-51
3.55747e-51
-3.37866e-52
1.43567e-52
-1.07879e-52
-7.00957e-54
-1.75263e-53
-2.73221e-54
-1.95018e-54
3.04813e-56
-1.15504e-07
-1.00303e-62
-2.53248e-63
-1.37877e-50
4.35129e-10
5.62429e-10
-1.03947e-27
4.5655e-28
3.87606e-59
6.62323e-59
5.12885e-58
1.01526e-58
1.5698e-66
1.11588e-45
2.53161e-46
1.33632e-59
1.97658e-59
1.4305e-58
2.69649e-59
3.78295e-60
5.00986e-60
0.785978
-6.51995e-55
9.22441e-60
1.04218e-57
2.21411e-54
11.1161
9.20832e-16
-1.51239e-15
5.49359e-20
4.58831e-23
2.44365e-23
1.77916e-22
5.57449e-38
5.1743e-17
5.38968e-46
-1.04436e-32
1.15677e-05
0.00010187
-4.53359e-06
4.4862e-05
-6.54271e-58
1.19196e-54
1.58945e-09
7.01869e-67
1.55363e-67
9.93643e-68
5.05499e-59
-5.37673e-55
-6.8367e-56
-4.48696e-55
-6.06675e-56
-1.89829e-55
-2.58358e-56
1.98448e-57
-9.63372e-58
6.66196e-56
7.93396e-57
6.50975e-56
5.12512e-55
3.0841e-55
2.22043e-54
7.99877e-55
5.67136e-54
1.11016e-55
-6.44487e-56
-1.2196e-57
-2.55354e-55
-2.98242e-56
-2.12318e-55
-2.67419e-56
-1.22877e-55
-9.40255e-55
-1.59085e-56
-3.49351e-55
-2.46014e-54
-3.45904e-57
-5.36644e-55
-2.10087e-54
2.2632e-54
2.01228e-53
-3.49162e-57
2.33772e-55
-2.89275e-08
1.21521e-27
-8.15981e-13
1.42338e-10
1.68946e-10
4.43146e-11
4.86527e-11
1.31868e-11
1.35065e-11
2.18991e-54
1.42947
1.14607
-1.17836e-05
-3.19051e-06
5.4836e-60
-6.38906e-60
4.04943e-43
3.68812e-42
-4.65985e-42
1.5782e-41
-8.85264e-31
-4.69301e-29
4.56822e-31
4.15512e-60
-1.0434e-64
-2.97614e-65
0.520801
0.637888
3.5395e-59
-1.56564e-55
5.70763e-48
1.94129e-59
2.22022e-68
1.39631e-68
0.000202226
2.28077e-54
2.77185e-55
3.76344e-12
0.000285241
0.000134231
-8.93223e-38
-3.93365e-37
4.88734e-45
7.1289e-61
9.16947e-61
2.40684e-10
4.49661e-10
2.08096e-37
1.8644e-58
-1.41071e-40
-2.35584e-43
1.46249e-48
3.6227e-12
-1.21941e-07
-1.06737e-08
0.48395
0.234947
3.31567e-43
1.32292e-61
1.6551e-61
3.14855e-69
1.94565e-69
1.59784e-65
4.18687e-66
3.28491e-11
-1.55896e-11
-4.69394e-20
-1.68845e-28
9.35174e-28
1.00891e-53
0.306792
-1.45862e-60
-7.26522e-56
-8.61561e-56
0.300342
-2.01338e-48
-1.31043e-05
1.79326e-30
2.04056e-31
-3.13499e-60
0.335076
-2.87024e-28
-3.12868e-11
-1.39082e-10
-3.7433e-11
4.71203e-40
1.70848e-53
2.41949e-62
2.94861e-62
-2.39723e-62
0.00086226
0.000646251
1.43337e-54
1.81833e-55
5.43518e-54
1.03347e-12
-9.18448e-11
-4.32942e-10
-1.39201e-11
2.59484e-05
1.93632e-61
3.36339e-62
-9.94092e-57
-6.73783e-57
9.85208e-62
-2.12317e-56
3.1197e-57
0.162862
-2.03512e-61
4.79635e-69
1.61818e-66
4.40697e-67
1.16207e-66
1.24488e-67
3.20227e-67
6.25466e-65
-5.02835e-53
-4.54035e-49
-1.94585e-49
9.39834e-13
6.89116e-21
5.48507e-21
1.99745e-40
3.56634e-68
8.6236e-68
1.7313e-69
5.18333e-63
5.77525e-63
4.42842e-70
2.69081e-70
1.13199e-69
-5.69125e-36
-2.78092e-36
-7.56371e-30
-2.19109e-39
-1.61839e-39
3.63216e-40
1.20142e-39
-2.57862e-28
-6.79168e-54
1.74372e-52
-5.99899e-54
1.48515e-51
3.70744e-52
1.23418e-50
6.09939e-51
1.00479e-49
7.10617e-50
8.03912e-49
7.07113e-49
6.33195e-48
6.36004e-48
4.92897e-47
5.37588e-47
3.76871e-46
4.47981e-46
2.84175e-45
3.64687e-45
2.12324e-44
2.89647e-44
1.57027e-43
8.64207e-44
6.18679e-43
1.14953e-42
4.38846e-42
2.04307e-42
1.41617e-41
3.08444e-41
9.72853e-41
4.01349e-41
2.70001e-40
6.623e-40
1.79955e-39
6.71356e-40
4.38651e-39
1.5106e-39
9.66872e-39
2.83773e-38
6.12369e-38
1.93352e-38
1.19794e-37
3.8375e-37
7.33804e-37
2.12872e-37
1.27324e-36
4.44316e-36
7.52207e-36
2.65813e-35
4.38794e-35
1.15577e-35
6.56502e-35
2.5263e-34
3.67709e-34
1.43484e-33
2.02981e-33
1.61223e-35
1.27143e-45
4.02006e-48
8.03498e-33
1.10368e-32
-1.04649e-48
2.59357e-33
1.36649e-32
5.90727e-32
7.0775e-32
1.5211e-32
7.61417e-32
3.59961e-31
3.74466e-31
1.79727e-30
1.80811e-30
8.81551e-30
8.55099e-30
4.24469e-29
3.95905e-29
2.00429e-28
1.79158e-28
9.0193e-51
9.25765e-28
5.27662e-33
7.91559e-28
7.39033e-30
1.53306e-32
8.18405e-30
4.18088e-27
3.40911e-27
5.93556e-28
0.000149429
0.0608315
-0.0274469
-4.71649e-62
0.159391
1.3552e-31
-3.33832e-33
9.00072e-64
7.81024e-40
6.18064e-71
0.0789381
1.00532e-62
-2.44784e-57
1.09216e-56
8.87566e-58
-8.47938e-49
2.04318e-29
6.6212e-28
6.47969e-27
2.23004e-27
7.14417e-27
8.08429e-53
9.50833e-57
-4.61788e-12
2.89651e-12
-8.37601e-45
1.04339e-11
-1.8889e-10
-1.114e-09
-7.46094e-29
-5.68974e-08
7.70268e-09
2.12161e-61
1.06519e-65
2.15307e-66
1.20459e-55
-4.36631e-54
-4.44101e-50
-1.01981e-49
-8.13775e-52
0.00141781
0.00145448
0.000290531
0.00103148
5.80151e-05
0.000487893
7.36918e-55
9.5429e-56
7.05807e-13
2.74461e-13
-1.39079e-49
1.40238
-3.88013e-06
-1.32156e-06
1.86593e-07
1.81965e-34
2.29145e-56
1.22915e-56
2.86288e-57
1.57179e-57
3.54436e-58
1.99517e-58
4.35501e-59
2.51408e-59
5.28882e-60
3.14468e-60
6.30898e-61
3.89968e-61
7.45338e-62
4.79582e-62
6.36213e-62
8.68769e-63
5.85069e-63
2.47371e-62
3.07663e-63
7.47812e-58
9.9868e-64
1.12814e-62
1.42127e-63
2.52289e-41
1.62632e-10
-4.09671e-35
3.87431e-34
6.99811e-34
3.13586e-33
1.56771e-34
2.58493e-19
-2.10321e-24
3.42136e-20
7.44811e-19
1.02717e-62
0.00631083
3.74186e-54
-1.06797e-28
-2.65471e-26
2.4227e-27
3.85423e-28
1.42897e-26
1.53852e-70
6.24851e-70
-1.50088e-35
-9.05126e-37
-5.71666e-35
1.27819e-52
2.58799e-53
6.66995e-39
1.01623e-68
2.26642e-68
0.0687338
5.99367e-34
1.15566e-57
2.64537e-58
6.78404e-57
2.72516e-57
1.57519e-07
3.49589e-36
-1.24623e-22
-1.40227e-21
1.53399e-08
1.72611e-08
4.71461e-09
0.00188133
-3.10343e-10
-2.25867e-09
1.83284e-52
3.58335e-53
-2.07205e-38
3.19691e-07
1.42548e-07
-3.41265e-05
0.000134974
0.0687307
0.0349223
-0.0238175
6.91666e-62
3.84874e-61
6.42358e-63
5.99652e-40
1.04016e-38
-3.80083e-32
-1.21077e-31
1.75243e-58
4.28227e-58
2.9254e-57
1.91504e-20
5.56539e-06
-1.70146e-17
-1.5338e-47
1.29526e-47
-6.17695e-35
2.62818e-58
-2.2138e-52
3.28881e-52
3.53085e-09
7.72195e-10
1.89041e-12
4.3535e-13
5.05767e-48
-1.85615e-26
-1.88111e-25
9.58252e-28
1.47566e-27
2.11199e-28
3.66163e-35
1.43753e-65
2.79599e-66
2.85233e-69
5.7944e-69
-6.52659e-68
-1.87709e-68
-7.95353e-67
-1.95081e-67
-1.44268e-66
-3.21437e-67
3.8257e-66
8.88873e-67
2.91848e-65
5.96633e-66
3.57266e-65
6.35436e-66
-9.97672e-65
-2.59245e-65
-2.20178e-64
-3.49086e-65
3.02641e-64
1.01887e-64
4.85897e-63
9.66291e-64
7.71964e-63
3.84217e-62
-7.4673e-62
-1.51272e-62
-4.65457e-61
-8.26484e-62
-4.4483e-61
-2.59635e-60
4.38528e-60
8.302e-61
2.18228e-59
1.25092e-58
1.11622e-58
1.82984e-59
-1.57549e-58
-2.67411e-59
-6.36435e-58
-3.86433e-57
-3.03817e-57
-4.97999e-58
4.18549e-57
2.54956e-56
9.62166e-56
1.4937e-56
6.15822e-56
4.03134e-55
-7.25452e-55
-1.15357e-55
-6.6568e-55
-4.23444e-54
-1.04258e-55
5.56474e-54
3.50113e-53
1.34243e-52
8.63691e-52
6.0958e-52
3.94896e-51
-1.13331e-51
-7.83475e-51
-1.72861e-52
-5.79918e-50
-3.66066e-49
-1.03012e-48
-5.7203e-48
-7.3837e-48
-4.07199e-47
2.8153e-47
1.99281e-46
3.85814e-48
-2.01658e-46
1.36417e-45
4.11573e-45
2.79777e-44
2.54446e-50
9.1013e-45
1.88066e-43
1.40991e-43
9.16669e-43
1.24366e-42
5.87454e-42
2.48632e-45
-2.0728e-42
3.74004e-41
-2.72407e-41
-3.23118e-40
-2.23188e-39
-2.65178e-40
-1.54566e-38
-1.9001e-38
-1.12236e-37
-1.06434e-37
-6.83645e-37
-3.48141e-37
-1.51961e-36
3.34696e-36
2.29741e-35
-7.16922e-37
5.25945e-35
3.38292e-34
7.94807e-36
1.54852e-34
2.05127e-33
1.4724e-33
9.1397e-33
-9.8361e-34
-1.17726e-32
1.21485e-32
-5.35673e-32
-3.65698e-31
-3.50811e-31
-2.04269e-30
-2.45955e-30
-1.22529e-29
-4.38082e-30
-1.67449e-29
-7.411e-29
-5.50059e-29
2.175e-28
1.5093e-27
2.02862e-27
1.27309e-26
-5.94706e-32
-4.4523e-28
7.28193e-27
4.23401e-26
7.73504e-26
1.22492e-27
4.08296e-27
7.5568e-27
2.40184e-63
1.30406e-58
4.48177e-29
-3.64545e-22
-4.03323e-22
-4.01599e-21
-1.45392e-22
-3.66457e-21
3.66612e-22
-8.41823e-22
1.15868e-21
3.7558e-21
1.60553e-22
1.32319e-21
1.009e-20
5.04644e-22
9.29675e-21
3.38667e-20
7.787e-20
2.63368e-20
2.86942e-19
-1.38432e-18
4.62384e-19
-1.58565e-17
-6.96395e-18
-8.81057e-17
-8.78531e-17
-2.3388e-16
-5.10846e-16
5.73993e-16
-1.41752e-15
1.3592e-14
1.57222e-15
1.00168e-13
6.02012e-14
6.18393e-52
-5.49793e-54
-7.45901e-53
4.69823e-63
5.97738e-64
1.78169e-64
7.56885e-65
3.6649e-62
2.22002e-65
9.52984e-66
2.97919e-65
3.77852e-66
3.36357e-55
2.54111e-54
1.30676e-38
7.0598e-37
3.93682e-35
2.69171e-13
7.33637e-14
8.38758e-71
3.27071e-70
2.41372e-52
4.57404e-53
-0.0221025
0.021527
-5.59968e-37
3.72959e-52
1.39083e-32
2.54124e-33
5.80204e-32
1.56807e-53
-2.67989e-07
-2.83045e-27
2.9262e-51
1.67162e-51
2.67737e-38
1.09771e-37
-1.21559e-59
-1.44225e-58
-6.1529e-59
1.21568e-32
2.27934e-31
5.40485e-20
-3.31216e-05
-1.36882e-05
-2.51357e-15
6.31816e-62
9.52343e-61
-3.17243e-40
-1.02482e-40
-5.99619e-32
-4.8844e-31
-4.13976e-33
2.35809e-58
9.72466e-58
4.3993e-64
5.93921e-08
1.73151e-09
4.16557e-18
-0.00913596
-0.0129232
0.0270824
0.0141439
7.39004e-53
3.06516e-53
1.3566e-52
3.32006e-13
4.39264e-13
7.70643e-57
7.96068e-58
2.19773e-58
-9.45211e-59
-7.0882e-27
-3.69033e-44
3.56123e-53
1.10181e-52
1.1001e-65
1.40557e-66
4.77158e-67
1.78766e-67
4.92714e-67
6.28477e-68
6.06653e-08
-1.93537e-23
-3.89014e-23
-6.47023e-26
-3.05309e-25
-8.6072e-27
-1.728e-63
7.4236e-28
-3.91416e-10
-3.8996e-09
-3.48178e-12
-1.14571e-08
-2.45955e-08
-3.87558e-08
-1.06521e-07
-6.94936e-08
-2.85074e-07
1.04642e-07
-3.52996e-07
-8.69547e-07
-1.74391e-06
1.35066e-50
7.24413e-51
-1.00505e-25
-6.915e-25
-6.4836e-66
-6.95458e-68
6.34961e-32
9.07026e-31
1.40551e-62
1.0806e-61
-4.53255e-11
-3.41079e-11
-2.75812e-53
-1.15799e-52
-7.16175e-52
-1.57017e-52
-4.59133e-51
1.04706e-54
7.77202e-54
1.90265e-55
-2.31904e-19
9.12218e-29
2.77351e-29
-7.03625e-60
-3.00874e-59
-2.86955e-60
-1.21093e-59
-5.90193e-62
-2.11993e-61
1.00777e-12
2.2025e-13
9.74744e-14
9.99121e-21
-1.60434e-35
-7.51882e-36
-2.00464e-36
2.33675e-20
-1.2698e-37
-1.10916e-37
6.72656e-53
-1.62323e-27
-3.48287e-28
1.0119e-28
6.9424e-29
1.73052e-26
3.3855e-27
2.48737e-26
5.10055e-27
6.89055e-28
6.84911e-28
1.02964e-27
1.50072e-28
2.06799e-28
3.18302e-29
4.1401e-29
-4.96495e-29
6.58353e-30
-2.96709e-31
0.360636
0.0937975
0.0731985
0.00483319
-0.0114316
-0.00961871
-0.0125553
-0.00375157
-0.00287743
-0.00450854
-0.000246887
0.000269425
-0.00139589
0.000597523
0.000146355
0.000614856
0.00113393
0.000521509
0.00012042
4.09268e-05
0.000364305
-1.0046e-05
0.000180624
-2.72638e-05
-1.45416e-05
-1.02328e-05
-2.45456e-05
-5.68113e-06
-2.83317e-07
2.88753e-07
2.65382e-07
1.74951e-07
3.97116e-08
1.05268e-08
-1.72274e-05
9.45327e-08
-2.41306e-10
-3.24066e-09
-2.00387e-09
8.54726e-08
-5.38548e-10
-1.81822e-10
4.42151e-08
6.36716e-14
1.79067e-14
-8.51762e-30
9.06608e-31
4.33228e-71
1.12128e-71
1.83614e-65
3.43083e-66
5.27223e-67
6.21162e-67
9.63578e-68
1.0925e-67
1.43604e-69
1.71066e-68
3.55128e-11
2.65959e-11
-3.07997e-11
1.5515e-11
7.03752e-62
0.000225727
4.93126e-12
1.97025e-12
-1.70555e-59
-3.70007e-59
2.63971e-55
4.09266e-64
-7.05137e-39
-4.34811e-39
1.90294e-59
-1.14134e-58
-1.9141e-05
-2.76151e-05
-6.75869e-06
8.26711e-30
1.34158e-30
6.43026e-32
1.45885e-32
-2.90098e-32
-5.81316e-33
4.46739e-57
1.01563e-56
1.02126e-50
-1.49599e-50
5.39102e-13
1.44496e-12
2.13204e-13
1.60842e-12
2.45538e-12
5.28463e-12
-1.50962e-11
-1.28653e-17
-5.88405e-10
-3.85281e-33
-7.60745e-34
1.85403e-52
7.78761e-52
-1.93257e-06
-5.73268e-06
8.05276e-12
5.11115e-13
-1.45989e-13
-8.51599e-14
6.64368e-14
-4.2483e-14
-1.28193e-14
-4.57067e-15
-1.80873e-14
-1.05867e-15
3.05858e-16
1.5453e-16
-1.52427e-16
6.90305e-17
2.14685e-17
7.34626e-18
2.50884e-17
1.76365e-18
8.63383e-18
3.13999e-19
2.89023e-18
3.51513e-20
-7.06651e-20
-2.65122e-20
-8.24729e-21
-2.51806e-21
9.35394e-19
2.39275e-22
1.04747e-22
-5.34459e-22
4.22376e-23
1.89476e-23
6.00263e-24
1.5724e-23
1.87367e-24
-5.95321e-26
8.78611e-11
4.41325e-11
2.93385e-52
5.39767e-53
6.06553e-50
3.01172e-50
4.19688e-22
-6.47094e-09
-3.28881e-09
5.8087e-13
-3.01303e-32
-5.30511e-31
1.86363e-62
5.32216e-61
-0.00298539
-0.00508112
0.00982107
0.00527576
0.00620187
0.00235853
-2.16184e-40
-1.46586e-41
1.87194e-68
1.1724e-67
1.93044e-38
4.87548e-39
0.00011966
-4.40522e-39
-4.14808e-60
-5.35409e-59
-6.18306e-58
-1.71257e-58
1.63774e-67
1.6212e-70
-0.000544167
4.42904e-56
-5.66066e-56
5.44038e-24
4.61904e-12
-5.16378e-62
-1.01625e-12
0.0138067
2.44406e-69
2.99913e-08
4.37749e-09
1.08958e-42
5.21776e-59
-3.56551e-06
-1.37511e-05
-9.07171e-06
-3.09998e-05
-2.59792e-05
-8.20344e-05
7.57553e-52
5.60564e-51
0.00026076
2.60887e-51
3.98669e-50
6.54917e-51
2.79373e-49
-7.57336e-50
1.95853e-48
-1.5677e-48
1.34467e-47
3.16284e-27
-8.51907e-25
-3.42961e-24
-6.65523e-24
-2.4637e-23
1.88804e-23
2.22809e-24
1.10813e-22
5.04507e-22
5.54013e-22
1.97842e-21
-6.08479e-21
-3.56368e-20
-6.53495e-20
-3.17778e-19
-1.3541e-19
-4.08635e-19
3.61968e-18
1.96012e-17
-1.35721e-20
2.488e-23
2.62298e-17
1.26903e-16
5.4348e-18
9.84949e-17
5.92534e-16
5.96317e-17
-9.08113e-17
2.58853e-15
-1.96658e-47
8.6954e-47
-2.04956e-46
5.16502e-46
-1.91327e-45
2.1363e-45
-1.62898e-44
-3.76841e-38
1.71524e-11
-3.75488e-60
-8.08174e-55
3.25996e-31
2.73209e-65
-8.07858e-66
-1.86318e-59
-3.12787e-59
-8.38104e-59
3.39424e-59
-2.22039e-60
-1.11878e-60
2.9804e-61
-2.13253e-60
2.5141e-59
3.66184e-58
1.19498e-58
1.0589e-59
3.01716e-59
-5.36081e-15
-2.66896e-14
3.8714e-62
2.93698e-61
6.39853e-52
-2.27761e-55
-6.01099e-54
5.99118e-68
2.95038e-54
2.15607e-53
4.69028e-14
2.12515e-14
1.95758e-14
3.9259e-57
-1.88058e-57
2.44633e-06
-3.24284e-05
-0.000143469
9.48157e-30
3.24104e-30
2.57515e-34
6.36682e-35
9.04231e-14
-1.90312e-42