/*--------------------------------*- C++ -*----------------------------------*\
  =========                 |
  \\      /  F ield         | OpenFOAM: The Open Source CFD Toolbox
   \\    /   O peration     | Website:  https://openfoam.org
    \\  /    A nd           | Version:  6
     \\/     M anipulation  |
\*---------------------------------------------------------------------------*/
FoamFile
{
    version     2.0;
    format      ascii;
    class       volScalarField;
    location    "9504000";
    object      Cw;
}
// * * * * * * * * * * * * * * * * * * * * * * * * * * * * * * * * * * * * * //

dimensions      [1 -3 0 0 0 0 0];

internalField   nonuniform List<scalar> 
11831
(
0
0
0
0
0
0
0
0
0
0
0
0
0
0
0
0
0
0
0
0
0
0
0
0
0
0
0
0
0
0
0
0
0
0
0
0
0
0
0
0
0
0
0
0
0
0
0
0
0
0
0
0
0
0
0
0
0
0
0
0
0
0
0
0
0
0
0
0
0
0
0
0
0
0
0
0
0
0
0
0
0
0
0
0
0
0
0
0
0
0
0
0
0
0
0
0
0
0
0
0
0
0
0
0
0
0
0
0
0
0
0
0
0
0
0
0
0
0
0
0
0
0
0
0
0
0
0
0
0
0
0
0
0
0
0
0
0
0
0
0
0
0
0
0
0
0
0
0
0
0
0
0
0
0
0
0
0
0
0
0
0
0
0
0
0
0
0
0
0
0
0
0
0
0
0
0
0
0
0
0
0
0
0
0
0
0
0
0
0
0
0
0
0
0
0
0
0
0
0
0
0
0
0
0
0
0
0
0
0
0
0
0
0
0
0
0
0
0
0
0
0
0
0
0
0
0
0
0
0
0
0
0
0
0
0
0
0
0
0
0
0
0
0
0
0
0
0
0
0
0
0
0
0
0
0
0
0
0
0
0
0
0
0
0
0
0
0
0
0
0
0
0
0
0
0
0
0
0
0
0
0
0
0
0
0
0
0
0
0
0
0
0
0
0
0
0
0
0
0
0
0
0
0
0
0
0
0
0
0
0
0
0
0
0
0
0
0
0
0
0
0
0
0
0
0
0
0
0
0
0
0
0
0
0
0
0
0
0
0
0
0
0
0
0
0
0
0
0
0
0
0
0
0
0
0
0
0
0
0
0
0
0
0
0
0
0
0
0
0
0
0
0
0
0
0
0
0
0
0
0
0
0
0
0
0
0
0
0
0
0
0
0
0
0
0
0
0
0
0
0
1.40395e-36
2.73274e-22
9.98757e-21
-2.56988e-33
-8.45303e-26
-1.95475e-35
2.5487e-16
-1.27754e-34
1.39238e-37
-4.26021e-33
8.57364e-17
-1.31224e-25
2.07323e-13
3.65413e-36
-1.62084e-31
5.0824e-35
-1.66279e-30
2.40332e-33
-8.9096e-14
2.68594e-40
2.24105e-37
2.03401e-35
2.88493e-11
3.34666e-38
-1.6077e-42
-5.69558e-34
-5.45192e-11
2.42534e-33
-3.98884e-36
-1.74283e-40
4.60811e-39
-9.09014e-10
6.2155e-35
-1.72628e-37
-7.80954e-45
7.39205e-10
-2.70674e-37
3.93083e-46
3.98854e-42
2.77805e-09
9.89557e-36
-7.49518e-41
1.23038e-47
-3.90696e-09
1.00259e-37
2.39218e-48
-5.76515e-43
-6.46786e-09
-4.95773e-37
-6.71316e-19
3.28493e-33
-1.19487e-22
7.38715e-37
1.16743e-44
8.26989e-24
1.61729e-35
-6.32542e-18
6.5967e-34
1.17465e-27
5.53081e-34
-5.84382e-36
4.45998e-49
9.62582e-29
-1.94255e-15
9.2103e-09
-1.81655e-38
-7.34717e-15
2.12948e-35
2.40057e-38
2.06867e-46
-6.16547e-52
5.58397e-09
8.91845e-39
-9.36199e-52
-7.00085e-45
9.88892e-09
-1.00992e-33
-4.72598e-32
5.46561e-35
-2.52379e-35
2.12037e-38
1.28355e-35
1.59212e-33
-7.33199e-35
-1.30916e-36
-1.83876e-12
1.73772e-43
-2.68946e-41
6.44044e-12
-4.54174e-11
-2.89543e-38
4.01039e-12
-5.37229e-48
1.32524e-39
1.42511e-09
-7.89193e-54
8.68053e-40
9.73213e-47
5.92908e-55
4.54993e-09
-1.2455e-45
2.01784e-37
2.3597e-35
4.56759e-39
3.40479e-38
5.84859e-50
-2.15839e-36
1.04109e-42
2.82636e-36
-9.08458e-42
1.56385e-37
1.08069e-44
-8.33304e-37
5.08507e-20
-4.72156e-18
4.92365e-36
3.27777e-28
3.83543e-33
5.83556e-34
1.03377e-19
-1.83273e-35
-8.29094e-22
1.01563e-34
-7.43349e-30
-1.97124e-33
-1.72873e-21
2.03267e-23
4.78659e-33
-1.65158e-30
-3.13736e-35
-3.00223e-35
-2.33092e-42
-1.09382e-34
-9.3178e-09
2.96262e-16
1.46565e-34
-2.18182e-25
4.16424e-35
-2.39188e-15
-4.31628e-35
1.67757e-40
1.44876e-09
-6.38339e-12
-4.67216e-48
-8.55221e-35
-1.33861e-50
-6.43634e-46
1.25803e-39
1.31808e-43
7.86854e-09
-2.752e-09
7.61618e-28
3.20472e-09
-4.71477e-33
-5.05886e-26
-9.41038e-16
4.64716e-36
6.74135e-42
4.75797e-14
-9.81977e-13
2.99466e-39
-2.62398e-18
-5.31196e-34
4.27348e-09
-3.20593e-49
1.60306e-40
1.78141e-10
-3.12131e-55
4.63076e-36
1.63152e-36
-2.55821e-35
-1.01759e-34
-2.3231e-34
-8.45357e-34
-7.5865e-34
-2.74575e-33
7.28886e-34
4.69432e-33
2.26946e-32
9.39039e-32
1.22398e-31
4.30697e-31
3.82863e-31
1.52738e-30
8.77222e-31
2.37968e-30
-4.92243e-30
-2.1538e-29
-5.33205e-29
-2.07455e-28
-1.85113e-28
-6.64544e-28
-2.04227e-28
-4.25264e-28
2.39298e-27
1.01026e-26
1.96306e-26
7.36068e-26
4.15506e-26
2.62387e-25
1.67608e-25
9.07953e-25
6.64251e-25
3.07521e-24
2.57922e-24
1.01527e-23
9.78422e-24
3.35776e-23
3.5859e-23
1.10927e-22
1.26255e-22
3.62026e-22
4.17927e-22
1.15404e-21
1.34517e-21
3.45255e-21
4.2192e-21
9.21748e-21
-3.82878e-21
-2.22057e-20
2.13369e-20
-1.01431e-19
4.63973e-20
-4.15521e-19
-9.41145e-19
-3.20413e-18
-1.59185e-18
-1.03956e-17
-9.23337e-18
-2.74315e-17
-3.16146e-17
-7.86734e-17
-1.21477e-17
1.43257e-17
3.06391e-16
1.11381e-15
2.28111e-16
3.85728e-15
1.2422e-15
1.29087e-14
1.65668e-14
4.76354e-14
4.18506e-14
1.32125e-13
9.43483e-14
2.15434e-13
3.58203e-13
4.154e-13
-3.7087e-13
-1.6587e-12
6.88828e-13
-6.40143e-12
-1.30457e-11
-4.00962e-11
-4.64456e-11
-1.27504e-10
-1.1887e-10
-3.35467e-10
-2.38245e-10
-5.67012e-10
-8.54189e-10
-1.22613e-09
-2.09023e-09
-2.23444e-09
1.02342e-09
5.13987e-09
-3.51034e-09
1.97555e-08
4.0603e-08
1.19509e-07
6.78757e-08
3.39034e-07
4.10083e-07
1.07774e-06
1.07065e-06
9.30458e-07
2.75279e-06
2.47426e-06
6.84781e-06
6.37766e-06
1.66009e-05
1.59323e-05
3.91092e-05
3.85612e-05
8.95532e-05
9.03376e-05
7.27022e-25
0.000199125
0.000205061
0.000428965
0.000358992
0.000451688
0.000186555
0.000425159
0.000141406
0.000337334
0.000730542
0.000529993
8.16939e-05
0.0010214
0.000649448
0.000212149
2.43457e-05
0.00118965
0.000682989
8.43805e-05
-1.69529e-05
0.00119771
0.000612352
-1.37752e-05
0.00101262
0.000453606
-4.01879e-05
-6.77789e-05
0.00070147
0.000271368
-4.44948e-05
-8.39554e-05
0.000387628
0.000126093
-3.76872e-05
0.000162449
4.13958e-05
-7.91462e-05
-2.05723e-05
4.46918e-05
6.24744e-06
-4.79262e-05
2.33959e-06
-2.95682e-06
-5.35128e-06
-1.70137e-05
-6.52488e-06
-4.44644e-06
-2.41966e-06
-2.04716e-06
-1.31454e-06
-6.94843e-07
-5.12282e-07
-1.75941e-07
-1.49681e-07
-3.01536e-08
-3.18719e-08
-1.17175e-09
-3.98327e-09
1.64848e-09
4.1732e-10
1.16741e-09
5.17472e-10
5.01944e-10
2.99981e-10
1.46997e-10
1.06713e-10
2.95701e-11
2.64659e-11
3.36247e-12
4.38092e-12
-3.47593e-13
2.62474e-06
2.71938e-13
1.82763e-06
-4.58965e-05
3.90385e-09
-1.40568e-12
-8.67879e-13
-4.66442e-06
-0.000109979
4.74974e-06
-1.54685e-12
-4.2922e-13
-2.49765e-05
-0.000241191
-7.82738e-05
-0.000493675
-4.93023e-13
-6.32123e-14
-0.000201006
-0.000950166
-2.15948e-14
1.65637e-14
-0.000452308
-0.00171228
-0.000923889
-0.00284
4.16033e-14
1.83754e-14
-9.80487e-05
-0.00174842
-0.00443681
-0.00308014
-0.00653361
2.49992e-14
4.72386e-15
4.70585e-15
4.40644e-16
7.41291e-16
-7.28617e-17
-0.00501773
-0.0089973
-1.01388e-16
3.82637e-17
-0.00756249
-0.0113376
-5.84272e-17
-0.0107478
-0.0131029
-2.18577e-17
-0.0141478
-0.0126141
-2.38435e-17
-0.00720656
-0.0170086
-0.003983
-7.17817e-06
-1.32793e-17
-0.0191904
0.0162173
0.122489
0.223995
0.531236
0.790221
1.36084
1.81024
2.53405
3.09649
3.66162
2.28612
3.60663
2.74376
2.61758e-06
2.08055e-06
9.83074e-07
3.54633e-07
1.20559e-07
-3.71328e-08
-2.91534e-08
-3.68981e-08
-1.91635e-08
-1.12943e-08
-4.62835e-09
-6.46974e-10
-5.22527e-12
4.50694e-10
2.62944e-10
1.82586e-10
8.52436e-11
2.0916e-11
5.85948e-12
-4.19341e-12
-2.58743e-12
6.23077e-11
-2.14668e-12
-9.95424e-13
-3.06083e-13
-9.58184e-14
3.48769e-14
2.25775e-14
4.00907
3.13275
-5.47493e-18
2.04775e-14
9.33127e-15
3.00886e-15
9.39644e-16
4.35554e-14
-4.30686e-18
4.2585
3.40982
4.26995e-12
-2.83438e-16
-1.81204e-16
-7.5832e-19
-3.32596e-19
1.13582e-19
3.20685e-19
4.34629
3.55144
-1.61383e-16
-7.17188e-17
-8.50456e-19
9.11358e-22
1.32776e-19
1.67219e-19
-2.0996e-17
-6.22017e-18
4.30236
4.67899
3.56859
2.26616e-18
1.36502e-18
2.54876e-20
1.25338e-20
3.20997e-18
-2.60001e-21
-7.88384e-21
1.0505e-18
4.57954e-19
7.47107e-19
1.99215e-19
2.64427e-20
5.0205e-21
8.49916e-20
-2.36522e-22
-4.91706e-21
-2.18418e-21
-7.82137e-22
-8.65067e-22
-4.30125e-22
-1.43537e-22
-3.48107e-22
-4.36098e-23
6.29016e-24
3.71615e-24
-1.23711e-23
1.9984e-24
1.54203e-24
4.08706
3.42899
-3.2311e-24
6.23574e-25
1.21936e-25
-3.2971e-21
-3.95517e-21
3.719
3.14931
2.5904
2.42439
1.72794
1.66563
-5.75722e-22
-2.15603e-22
-1.78162e-21
1.01415
3.06314e-26
-2.24345e-26
1.01394
7.62605e-23
1.98272e-22
2.77858
0.523935
7.22908e-23
7.14846e-23
3.47955e-22
4.64379e-23
3.62863e-22
-6.33998e-25
-1.11309e-26
-6.19063e-27
4.1656e-15
5.4397e-24
2.63013e-22
0.539556
-1.28539e-05
-1.05164e-05
5.64638e-13
3.45635e-12
6.15667e-13
2.40986e-12
5.33638e-13
1.48531e-12
3.95135e-13
7.92951e-13
2.55129e-13
3.62719e-13
1.44212e-13
1.32133e-13
7.2481e-14
3.97509e-14
2.96345e-14
9.93105e-16
9.93816e-15
-1.37205e-14
2.38503e-15
-1.56137e-14
-5.7158e-16
-1.30723e-14
-1.43486e-15
-9.22037e-15
-1.4015e-15
-5.8502e-15
-1.0616e-15
-3.37482e-15
-6.98926e-16
-1.79635e-15
-1.32054e-16
-4.16674e-16
-8.7257e-16
-2.26725e-16
-3.90507e-16
-1.13837e-16
-1.55953e-16
-5.23928e-17
-5.64806e-17
-2.20706e-17
-1.67347e-17
-8.41072e-18
-4.15224e-18
5.36557e-18
8.17103e-18
6.83596e-17
4.01147e-17
6.21577e-18
2.17192e-17
1.05073e-16
5.07761e-17
1.10765e-17
2.36097e-17
9.54367e-17
4.15662e-17
1.06027e-17
1.75858e-17
-1.38342e-17
4.61175e-18
7.23915e-18
2.52438e-17
9.91134e-18
2.9035e-18
3.80117e-18
1.19835e-17
4.41511e-18
1.29135e-17
4.59335e-18
1.5937e-18
1.60557e-18
4.35569e-18
1.47808e-18
5.51916e-19
4.92196e-19
1.86496e-19
1.6096e-19
6.18757e-20
5.17175e-20
3.72726e-18
2.01566e-20
1.63342e-20
6.45199e-21
5.07354e-21
1.19657e-20
3.61275e-21
1.55056e-21
1.0741e-21
2.33079e-21
4.66465e-22
3.14579e-22
-6.24284e-15
1.38193e-22
9.07925e-23
-2.5932e-27
-1.73604e-28
-7.99275e-28
4.0333e-23
0.233051
2.52346e-28
-2.21723e-05
-1.38877e-05
-3.81636e-23
8.41088e-23
0.251134
5.04521e-28
-3.37639e-05
-1.66441e-05
2.5832e-23
1.16012e-23
1.20734e-28
5.71671e-29
1.52959e-30
7.41889e-21
0.0855944
-4.647e-05
-1.79423e-05
-8.40796e-23
-1.23804e-22
2.42858e-29
4.06972e-31
-5.78003e-05
-1.72941e-05
7.24767e-24
3.28978e-24
4.92444e-24
0.10008
0.257568
8.55188e-13
-6.49466e-05
-1.42604e-05
-6.55732e-05
-9.26362e-06
9.38315e-07
3.11372e-06
2.48617e-06
3.46938e-06
5.47109e-06
4.06672e-06
1.32212e-06
1.06996e-06
1.33064e-07
-8.35191e-09
-7.24117e-08
-1.09161e-07
-1.32573e-07
-5.33801e-08
-5.02194e-08
-1.10151e-08
-5.20562e-09
1.07345e-09
2.27937e-09
1.37976e-09
1.40286e-09
3.53744e-10
1.85051e-10
1.10806e-09
-1.45684e-11
2.8818e-11
6.75998e-10
-1.26153e-22
-3.17676e-22
0.0231118
1.41162e-24
0.108074
0.249077
-1.10692e-13
9.20019e-25
1.1538e-31
-9.86774e-31
0.110659
0.224951
3.98959e-25
1.97977e-24
-8.25133e-11
2.4139e-10
-1.09848e-22
-1.23481e-23
-5.02844e-22
0.105424
0.191787
2.53823e-25
1.11208e-25
1.50551e-23
-0.00597296
9.59831e-14
4.3499e-23
5.74814e-15
-5.24655e-27
-3.69921e-31
-1.90098e-31
-4.74742e-31
-7.17611e-34
-0.00013591
-9.75391e-34
0.0934294
0.155019
-1.33301e-10
-8.44449e-11
2.90242e-24
3.69285e-24
-1.7381e-09
6.91036e-26
3.05826e-26
-7.14983e-34
6.111e-33
0.0429996
0.0779208
0.119188
-2.88624e-08
0.000248648
-1.54975e-10
-2.39e-10
-5.6667e-11
6.03339e-24
1.34029e-24
0.0614926
0.0874271
0.151009
0.104356
0.164001
0.0613147
1.85708e-26
8.30004e-27
1.28295e-26
2.27324e-33
1.08121e-33
3.51683e-27
3.74176e-11
-2.22605e-11
0.0693893
0.0411686
6.87072e-25
-2.94791e-26
-1.32923e-10
-2.79772e-10
-2.13645e-05
3.95812e-24
2.22371e-27
5.11186e-27
9.51452e-28
3.99962e-34
-1.76637e-35
8.25934e-14
0.0129962
-0.00217125
-0.00584579
-0.0050947
-0.00556264
-0.00272056
-0.00243001
-0.000761258
-0.000476915
-6.94864e-06
7.97171e-05
8.29391e-05
8.23259e-05
3.71717e-05
2.92823e-05
6.44764e-05
0.0445046
0.0265641
-1.57165e-25
-6.65066e-26
-4.98069e-26
-8.23496e-11
-2.62761e-10
-3.38434e-10
-4.72298e-10
9.57244e-10
-2.49381e-10
7.08044e-09
3.12933e-09
2.21374e-08
1.48318e-08
3.94898e-08
3.73129e-08
3.47168e-08
5.48352e-08
-1.62224e-07
-9.62161e-09
-8.60228e-07
-4.19388e-07
-2.25601e-06
-1.51903e-06
-2.84975e-06
-3.57037e-06
-3.12501e-06
-2.51339e-08
0.000282075
0.00161369
6.47974e-06
2.28848e-06
-1.20693e-11
-1.15433e-11
-3.63559e-22
-1.18597e-21
3.74688e-21
-8.15671e-22
3.29808e-20
1.7719e-20
1.46466e-19
1.33529e-19
5.07078e-27
5.88286e-28
2.54121e-28
-8.3428e-36
1.46411e-34
-1.45474e-35
-3.65814e-35
-2.76195e-36
-8.46277e-36
-1.34123e-06
-1.85408e-06
-2.54562e-06
-4.02348e-06
-9.31992e-12
-6.94872e-10
-2.51688e-25
-5.64673e-25
-8.20328e-07
0.0274459
0.0165137
0.0147057
1.10192e-36
-9.62233e-07
-8.34383e-07
0.00922268
-9.12567e-37
1.24344e-05
1.64047e-06
1.53718e-28
6.70246e-29
-4.62961e-08
2.30472e-36
0.00748864
-1.01853e-06
-2.36359e-07
-1.21012e-07
-6.30069e-07
-3.06089e-08
-3.89465e-07
2.585e-08
3.54405e-08
3.1488e-08
4.96088e-08
2.62434e-08
5.00689e-08
1.91456e-08
4.29838e-08
1.19816e-08
3.44531e-08
6.12315e-09
-2.05889e-10
-8.48184e-10
2.37606e-09
-8.78843e-10
-5.25844e-10
-3.59242e-10
-7.30015e-10
-2.19986e-10
-2.99052e-11
-1.67315e-12
1.21456e-11
9.47816e-12
-5.49992e-10
4.21394e-12
2.40414e-12
1.79304e-13
-7.9584e-14
1.094e-12
-1.33772e-13
-1.03844e-13
-6.80442e-14
3.90358e-13
1.29876e-08
-1.82673e-14
-6.7463e-15
7.51274e-13
0.0099135
0.00556744
-2.28874e-25
-9.27791e-25
5.71035e-05
2.72873e-05
9.79965e-05
6.04352e-37
3.96818e-29
8.5519e-29
1.74614e-29
2.77758e-29
7.30367e-30
1.7979e-15
1.6209e-15
-3.33382e-12
-4.05165e-12
0.00573228
0.00324304
-1.23562e-25
-9.0981e-25
1.42616e-36
1.09612e-29
9.26834e-16
5.34638e-16
1.19206e-15
2.84753e-16
7.89549e-16
1.26396e-16
-8.95775e-18
-1.18942e-17
4.64465e-16
3.07485
3.81046
3.2789
3.68093
3.18927
3.29675
2.88755
2.64861
2.36978
1.8792
1.72454
1.16808
3.92945e-26
-2.67225e-18
-7.27541e-19
-0.00130666
0.000136792
8.45596e-05
9.51582e-06
4.52103e-05
5.33962e-07
1.97985e-05
0.000105944
6.06811e-05
6.08845e-06
2.98505e-05
0.000110195
6.81235e-05
0.000134316
0.000100279
7.22857e-32
1.95508
1.52032e-05
8.28606e-05
-9.67652e-18
-5.5223e-18
-1.15965e-18
-4.91604e-19
1.01226e-29
-1.2774e-18
-3.90759e-19
1.42962e-15
2.4063e-38
2.90961e-30
-3.7897e-19
-2.42172e-19
1.10334
0.630063
-5.00609e-13
-9.4919e-13
-0.000428851
-0.000121126
3.63847e-05
0.00319124
0.0018265
-4.16238e-26
-1.46367e-26
-1.70418e-26
-1.67524e-27
-3.60332e-27
1.23773e-28
-3.88452e-28
1.17603e-28
3.48307e-29
4.55525e-29
2.90043e-29
8.91075e-30
1.07605e-29
8.50682e-31
1.98075e-30
-9.68452e-32
3.72236e-29
1.77243e-31
2.32708e-30
3.98521e-31
1.3501e-30
-6.68378e-32
-1.06243e-31
4.4867e-31
4.43236e-31
-1.8403e-32
-6.93295e-33
2.59644e-31
-3.30119e-31
1.05709e-33
2.83631e-33
9.106e-32
-8.86274e-31
8.94832e-34
-3.6145e-12
-1.19361e-12
-2.33743e-12
6.1103e-34
-7.26001e-27
-5.22996e-25
9.60348e-38
3.09611e-20
-8.69538e-20
-8.11298e-20
-4.46823e-20
-1.67457e-20
-1.25425e-20
-2.09322e-21
-2.25959e-21
-3.59329e-23
-2.37779e-22
7.35138e-23
9.41446e-24
3.59906e-23
1.30843e-23
-2.31951e-23
9.44585e-24
3.02578e-24
-3.34122e-23
-1.81028e-24
-3.07594e-23
-3.61226e-24
-2.189e-23
-3.6948e-24
-1.20966e-23
-2.73627e-24
-5.06903e-24
-6.73158e-26
-1.5909e-24
-1.49799e-24
-7.39167e-25
-1.71955e-25
-2.29468e-25
3.4082e-25
-8.49784e-24
-4.78011e-26
4.33554e-25
3.47326e-24
2.15847e-24
3.63861e-25
1.10352e-24
-1.99185e-25
-1.46094e-20
3.43723e-24
9.5668e-25
4.71382e-25
1.38911e-25
1.3996e-25
-1.43361e-25
3.00299e-26
-1.80666e-25
-1.19228e-12
-1.10367e-12
-2.5356e-25
4.1259e-30
-5.35027e-27
-1.46297e-25
-9.62676e-25
-5.02579e-25
3.64912e-35
-9.39352e-26
-2.24087e-25
-6.86021e-25
-1.77669e-25
1.5438e-19
1.14873e-19
-5.79293e-20
7.4483e-20
4.51662e-20
4.44133e-20
1.38165e-20
5.14579e-21
-7.67971e-22
-6.29048e-22
1.45112e-21
-4.18815e-22
-2.00086e-22
-9.68763e-23
-2.50932e-22
-4.46574e-23
1.60896e-24
2.15324e-24
-1.63609e-23
1.6564e-24
1.11581e-24
5.14452e-25
1.03225e-24
2.36256e-25
1.16367e-26
-2.13223e-27
-4.40394e-32
-1.06455e-30
-8.70404e-26
-2.87402e-26
2.74891e-25
2.67752e-25
2.11104e-24
1.17923e-24
1.84096e-25
5.89717e-25
2.56455e-24
9.49438e-25
2.62598e-25
3.03782e-25
5.02602e-25
2.21701e-26
7.4317e-26
-7.99062e-26
1.27505e-26
-7.29738e-26
-5.93782e-25
-3.15072e-25
-4.68364e-26
-1.53285e-25
-7.72019e-25
-3.19658e-25
-1.23285e-24
-4.08441e-25
-1.21934e-25
-1.23516e-25
-4.27506e-26
-2.97942e-26
3.43187e-36
6.15123e-34
-4.80982e-14
1.3534e-13
1.98634e-13
7.54599e-14
5.34031e-14
5.47933e-15
-2.71411e-15
-2.80852e-15
-3.55018e-15
-9.79568e-16
-5.00037e-16
1.54822e-17
9.71179e-17
5.19603e-17
4.55477e-17
1.30639e-16
2.4631e-17
1.18329e-16
9.40222e-19
5.49071e-18
6.56161e-17
5.81472e-25
5.87005e-08
7.67912e-05
2.00826e-26
-1.45397e-31
-8.02951e-31
1.10585e-30
3.78984e-37
8.4098e-36
4.68238e-32
0.00171007
0.00267147
0.000992704
0.000967364
0.000529296
-5.18088e-35
1.49162e-34
-2.37604e-35
-5.32498e-18
1.97321e-17
7.03747e-26
-7.31583e-26
3.20798e-26
-4.70423e-38
-1.8451e-38
1.57008e-19
-9.46614e-27
-4.93921e-27
-1.35963e-26
-5.69162e-27
-0.00126765
-0.00057515
-9.93494e-25
-0.00107209
0.615868
0.994327
0.290796
1.22072e-23
1.36453e-24
3.51657e-25
-3.21977e-25
-9.65893e-25
-2.89567e-25
-3.81917e-25
-4.57121e-26
-5.1545e-26
-6.42804e-28
-5.45164e-27
1.45813e-27
1.10997e-28
6.51497e-28
2.33968e-28
1.52991e-28
-1.80422e-31
-0.0188482
-7.27264e-39
-2.91819e-39
-1.42222e-26
0.573076
0.856138
-8.49001e-13
3.24015e-13
-3.79298e-27
-1.81768e-28
1.29107e-26
7.89782e-27
1.48344e-30
-1.5457e-27
-5.65658e-28
6.73755e-28
4.03999e-27
2.43314e-26
1.04675e-26
1.87712e-27
4.31593e-27
0.00047869
9.63372e-29
1.38569e-36
2.0207e-35
-1.85301e-30
0.0414197
3.5224e-08
5.13395e-08
-3.6827e-11
4.90886e-06
1.53772e-05
3.20777e-08
9.65236e-20
8.22699e-06
-2.24576e-27
3.92413e-12
3.78722e-06
-0.000219168
3.88327e-05
-6.07195e-05
-9.02728e-29
-3.73074e-24
0.269634
7.62775e-31
2.92658e-31
1.97539e-31
-1.33163e-29
1.73659e-26
4.91993e-27
8.82843e-27
3.1359e-27
-6.39474e-27
-9.76696e-28
-2.02175e-26
-4.85782e-27
-2.7378e-26
-7.05501e-27
-1.98487e-26
-7.06285e-26
-1.69871e-26
-3.13066e-26
1.62629e-25
7.37408e-25
3.41414e-26
2.83657e-25
6.91647e-26
3.00225e-25
7.7223e-26
1.90939e-25
5.35263e-26
7.80485e-26
1.87282e-25
2.58889e-26
-1.94428e-25
-9.9491e-25
1.93511e-26
-1.73146e-24
-7.20457e-24
-7.17025e-24
-2.7864e-23
-7.66398e-29
-1.81749e-24
-0.0178063
7.37907e-10
-0.00141625
0.508508
0.705092
0.430833
0.556194
0.34904
0.421027
-1.19679e-24
0.00135746
0.00185177
3.43815e-05
-1.05164e-06
-2.40946e-35
-2.81564e-36
1.06505e-25
2.18054e-25
-1.9441e-24
-3.62256e-25
-7.45633e-18
-7.4927e-18
-3.31447e-18
-5.78312e-36
1.0547e-40
4.41993e-41
0.000263604
0.000280435
4.70253e-36
2.2012e-29
7.14767e-29
-4.21471e-27
7.64942e-32
5.05484e-32
-0.00230303
-5.40927e-24
-1.44742e-24
0.270827
-0.000255701
-9.3635e-05
1.2173e-19
-1.33288e-19
-3.45501e-27
8.17999e-28
1.71681e-27
0.0957502
0.0756455
3.9971e-14
5.29612e-26
-1.09963e-23
-6.23779e-24
4.96965e-29
0.305858
-0.0205471
-0.0116587
0.000886716
0.000995558
9.40518e-26
3.39657e-28
6.61748e-28
1.97518e-32
1.27836e-32
8.07883e-41
3.31622e-41
0.0152546
0.00623304
-4.31935e-06
-4.76608e-13
1.76293e-12
-6.90438e-24
0.000140249
2.80676e-38
2.08205e-29
3.58657e-29
0.000220122
3.07375e-29
2.25693e-05
-1.75276e-18
-1.50046e-19
4.70917e-37
0.000143702
-3.30194e-13
-0.00454229
-0.00696443
-0.00577643
1.60507e-19
5.6694e-24
1.35606e-28
2.47934e-28
-7.03981e-37
-0.000508309
-0.000232155
-2.81171e-24
-8.00793e-25
-5.53846e-30
0.201445
-0.00636018
-0.00878257
-0.00323508
-0.00553418
1.10983e-27
3.96148e-28
1.57086e-30
-1.19716e-30
1.38462e-28
1.37584e-29
8.23528e-30
7.22581e-05
1.76119e-37
2.83155e-32
4.685e-42
1.87053e-42
1.3557e-41
8.04027e-43
5.49137e-42
1.94909e-40
1.08644e-27
1.35207e-29
1.22014e-30
0.213982
2.38056e-12
7.76357e-12
2.15886e-18
3.63331e-43
2.19385e-42
-1.36835e-43
9.05e-29
1.38268e-28
5.03953e-33
3.19579e-33
7.67437e-33
-1.84118e-18
-2.22922e-18
-1.27254e-15
-2.98373e-23
-3.1323e-23
-1.37692e-24
-1.80146e-23
1.99016e-10
-2.92551e-23
-1.06098e-22
-1.16517e-22
-3.94677e-22
-4.55231e-22
-1.43255e-21
-1.73635e-21
-5.0006e-21
-6.49929e-21
-1.70602e-20
-2.38896e-20
-5.67763e-20
-8.59806e-20
-1.84218e-19
-3.0099e-19
-5.8652e-19
-1.01825e-18
-1.84034e-18
-3.33744e-18
-5.61005e-18
-1.06682e-17
-1.62041e-17
2.96023e-20
1.0461e-17
-4.19825e-17
6.97552e-17
1.58896e-16
6.03674e-16
3.36074e-16
2.22506e-15
2.38869e-15
8.23697e-15
7.97772e-15
2.78686e-14
2.40331e-14
7.79158e-14
5.80637e-14
1.81427e-13
2.47904e-13
5.56661e-13
3.62906e-13
1.07547e-12
1.67644e-12
3.12642e-12
1.80842e-12
5.07241e-12
8.91074e-12
1.39364e-11
2.4886e-11
3.74828e-11
1.9012e-11
4.91656e-11
9.86201e-11
1.24258e-10
2.53665e-10
3.06581e-10
2.26498e-11
-4.27425e-18
-2.74212e-20
6.3752e-10
7.39036e-10
-2.43307e-20
3.26153e-10
7.59723e-10
1.74242e-09
1.72677e-09
6.86706e-10
1.48826e-09
3.82229e-09
3.1342e-09
8.23557e-09
6.40418e-09
1.72398e-08
1.26804e-08
3.50337e-08
2.4289e-08
6.90014e-08
4.49315e-08
-8.02889e-22
1.31536e-07
4.76956e-10
8.01075e-08
7.78533e-09
5.34289e-10
1.99348e-08
2.4229e-07
1.37321e-07
3.91495e-08
-0.00277113
0.00043486
0.000401355
1.34581e-37
7.12479e-05
1.36692e-19
9.43714e-20
3.22415e-29
1.49899e-24
1.27078e-33
3.6119e-05
1.29217e-38
5.59797e-30
-5.76587e-30
-9.42515e-31
5.44708e-30
-1.01747e-13
2.82022e-12
1.30718e-11
1.11383e-11
2.14546e-11
-1.45469e-24
-2.37113e-30
-0.00132452
0.288343
4.44905e-23
0.231137
-0.00626379
-0.0101356
2.63328e-16
-0.0149638
-0.00542995
1.64969e-27
5.40781e-30
1.8399e-30
1.93057e-31
1.08592e-29
1.25072e-31
5.95479e-30
-4.25119e-31
-0.000691215
-0.000362177
-9.45215e-05
-0.000174002
-3.34169e-05
-7.59269e-05
-9.55998e-25
-3.22934e-25
0.192443
0.143998
-8.46639e-28
0.352935
1.63105e-05
7.61925e-06
2.70484e-06
7.84226e-14
-2.23893e-25
-9.76647e-26
-6.12484e-26
-2.81687e-26
-1.64149e-26
-7.86039e-27
-4.31045e-27
-2.16118e-27
-1.09196e-27
-5.86436e-28
-2.69808e-28
-1.56091e-28
-6.55084e-29
-4.06355e-29
-7.89892e-29
-1.56737e-29
-1.0366e-29
-1.80998e-29
-4.79326e-30
-3.87425e-27
-3.6999e-30
-2.78679e-30
-1.22747e-30
-3.32109e-16
0.786042
1.03267e-19
1.66365e-19
2.73344e-20
5.74623e-20
-1.5388e-21
9.12399e-07
-7.68556e-07
-3.17594e-05
0.00190497
-2.98422e-33
0.977924
1.91329e-22
9.61373e-12
-2.43702e-11
6.1163e-08
1.42353e-08
2.25672e-07
1.88111e-33
4.26982e-33
-7.87099e-18
-4.3638e-18
-9.63008e-18
6.50207e-23
3.5541e-23
-4.45158e-24
1.68973e-43
8.60118e-43
3.39872e-05
3.17946e-21
-4.81804e-31
1.42453e-30
-1.11182e-29
-4.537e-31
2.65864
7.86327e-16
4.88205e-12
3.61921e-12
-0.00797386
-0.00157685
-0.000670101
-0.000225653
-0.00556945
-0.0104226
2.06721e-22
9.47658e-23
-4.15746e-23
6.19729e-07
-4.82078e-07
-9.01445e-06
-2.93111e-05
3.42163e-05
1.75102e-05
0.000162229
-6.37919e-39
4.41003e-38
-3.86804e-39
2.14027e-24
3.35141e-24
7.2209e-20
1.67573e-19
-2.33056e-32
-4.4817e-31
-1.07162e-29
3.04302e-09
4.09197
-0.000153389
4.07028e-28
-1.62065e-22
-2.45646e-21
-3.48048e-31
-2.19628e-31
-6.93812e-32
0.000204589
0.000271161
0.229764
0.144348
-1.65629e-24
-5.58629e-11
-3.45235e-10
1.79047e-07
1.91224e-08
2.81399e-09
-1.2377e-18
6.54502e-30
2.10702e-30
8.00566e-44
3.3852e-43
3.1328e-44
-7.53942e-44
-1.29658e-41
-5.37195e-42
-2.56031e-41
-1.01008e-41
3.89772e-41
1.77452e-41
4.69182e-40
1.86852e-40
7.4224e-40
2.87052e-40
-1.30248e-39
-5.34237e-40
-9.76377e-39
-3.74603e-39
-9.17065e-39
-3.48361e-39
4.58773e-38
1.65911e-38
9.49173e-38
2.64983e-37
-1.76379e-37
-6.46315e-38
-3.30768e-36
-1.1463e-36
-4.94559e-36
-1.44757e-35
1.55099e-35
5.26007e-36
1.42869e-34
4.34734e-34
5.7187e-34
1.8652e-34
1.78904e-34
1.06873e-34
-2.28238e-33
-7.74123e-33
-2.58302e-32
-9.67975e-33
-3.76811e-32
-9.08533e-32
1.41918e-31
4.64441e-32
1.12114e-30
3.15462e-30
4.47377e-30
1.49526e-30
-2.57107e-30
-7.81559e-30
-8.26336e-31
-8.65283e-29
-2.6064e-28
-3.29385e-28
-1.01318e-27
4.47612e-29
5.89065e-28
1.28426e-26
4.4188e-26
3.63909e-27
6.41296e-26
1.91738e-25
9.44971e-26
1.70173e-25
-1.47722e-24
-5.23997e-24
-1.21109e-23
-3.41566e-23
-4.31868e-24
-1.82408e-23
-9.62825e-23
-7.55599e-23
-1.56802e-22
2.90009e-27
-2.76849e-22
-2.80829e-22
1.78752e-21
6.27293e-21
-3.48615e-22
2.14237e-20
4.04463e-20
1.09585e-19
7.07783e-20
3.02283e-19
1.77278e-19
3.00762e-19
8.35165e-19
3.20447e-19
-5.6981e-18
-1.89601e-17
-1.04097e-18
-6.03975e-17
-9.35743e-17
-2.45205e-16
-1.55209e-16
-2.583e-16
-8.22566e-18
1.09209e-15
3.66832e-15
3.06007e-16
-2.73982e-16
1.18471e-14
2.36128e-14
5.90116e-14
5.57806e-14
1.08929e-13
3.63347e-14
-1.09245e-13
-4.44691e-13
-1.53434e-12
-4.32988e-12
-1.53162e-12
-1.12654e-11
-1.25091e-11
-2.93622e-11
-2.73247e-11
-6.19481e-11
-1.55764e-12
6.18531e-11
4.00453e-10
1.15165e-09
-5.13838e-13
-6.38727e-11
1.90048e-09
4.41214e-09
3.16567e-09
7.73678e-10
4.15367e-09
8.34603e-09
-1.31266e-39
4.51471e-32
2.681e-13
8.20719e-13
1.65237e-13
1.81727e-12
-1.41775e-13
5.92259e-13
-1.81401e-13
-6.86646e-14
-1.60927e-13
-2.54582e-13
-5.60023e-14
-9.98976e-14
-2.22e-13
-4.02887e-14
-1.44532e-13
-2.7341e-13
-2.6657e-13
8.18033e-13
-1.35543e-13
5.16894e-12
1.85498e-12
1.32828e-11
7.63105e-12
1.91795e-11
1.52438e-11
-1.58453e-11
1.58929e-11
-1.89701e-10
-5.5369e-11
-5.56403e-10
-2.81745e-10
-8.9839e-10
-6.12199e-10
9.93183e-23
1.48527e-29
7.32802e-29
4.33311e-30
7.32625e-31
-4.20712e-31
9.78601e-32
2.29628e-29
-1.24013e-31
5.30901e-33
2.82768e-31
5.62143e-32
3.34388e-25
2.10675e-24
-3.4233e-23
8.02414e-20
1.27065e-17
0.117898
0.0864242
1.02678e-33
2.19822e-33
4.59608e-22
1.93759e-22
0.000120641
0.000944965
-2.03175e-18
-4.14173e-23
1.06505e-19
1.6209e-20
1.79813e-19
1.26715e-27
-0.0178133
2.40954e-14
9.18892e-23
-1.99654e-22
-4.80376e-23
-1.28328e-23
2.54382e-32
5.0806e-32
8.00702e-31
4.57095e-20
2.65222e-19
-1.98484e-13
-8.98343e-07
-9.90077e-06
1.75984e-12
-1.49968e-38
-2.77731e-38
1.79745e-24
3.2399e-25
3.19396e-20
1.32351e-19
1.69979e-21
-1.1694e-30
-7.36492e-30
-1.26793e-39
-3.56322e-07
-2.68841e-07
3.10247e-12
4.17883e-05
6.2158e-05
1.59609e-05
8.24885e-06
-2.87939e-32
2.31276e-33
2.19763e-33
-2.99314e-10
-7.7166e-10
-2.9355e-29
-9.03789e-30
-3.84625e-30
-1.23116e-30
1.67837e-11
-9.34743e-22
3.21922e-24
5.51722e-25
2.99449e-31
6.44024e-32
1.07047e-32
1.35983e-32
5.50536e-32
1.2102e-32
-0.00288452
-1.19517e-13
5.01873e-15
-3.30112e-10
-9.42522e-10
-7.3702e-11
-2.51505e-38
1.98417e-09
-0.00445505
-0.00959005
-0.00141213
-0.0138319
-0.0146181
-0.0107726
-0.016178
0.0239576
0.00198272
0.139747
0.0777743
-0.0115054
0.0340715
-1.55588e-22
-7.73746e-22
5.41889e-10
-6.71187e-09
-1.4226e-39
-3.99313e-42
9.05101e-20
3.59328e-19
2.98301e-29
1.35622e-28
0.000225426
0.000182189
3.22846e-29
2.25143e-29
1.84084e-28
-6.95564e-28
7.43808e-29
3.81382e-24
1.63813e-23
-9.94696e-29
-8.16797e-06
-8.58175e-10
-5.27119e-11
-4.42148e-37
-8.15631e-37
-2.25688e-37
-5.36902e-37
-1.28982e-38
-6.22368e-38
0.150596
0.0892888
0.0872308
0.000344223
-1.5847e-21
-4.34055e-22
-1.61421e-22
2.94976e-05
-1.38036e-20
1.55002e-20
3.25338e-26
8.75515e-16
7.30579e-16
-3.41877e-15
-8.59185e-16
-1.83701e-14
-9.4741e-15
-3.63027e-14
-2.30576e-14
-1.42256e-14
-4.2944e-15
-1.26553e-14
-1.56839e-15
-6.49068e-15
-4.68413e-16
-3.21114e-15
-1.09194e-14
-7.83248e-17
-2.27364e-12
0.00038051
0.000160756
0.000262394
0.000101336
0.000154114
5.36537e-05
7.39021e-05
2.21408e-05
2.46378e-05
3.63261e-05
4.76117e-06
2.36964e-06
2.17431e-05
-2.46689e-06
1.3133e-05
-1.07045e-05
-3.45216e-06
-2.06484e-05
-9.35267e-06
-1.28473e-05
-3.17151e-05
-1.53156e-05
-4.32212e-05
-1.50815e-05
-3.16148e-06
-1.50016e-06
-1.25554e-05
7.22428e-07
1.34682e-06
2.00465e-06
8.21482e-07
8.38784e-07
1.95053e-07
1.11048e-07
-7.66947e-06
7.08009e-07
2.97901e-09
-4.75876e-08
-7.00586e-08
2.42115e-07
-2.71722e-08
-2.51628e-08
4.73594e-07
0.0610104
0.0460504
-1.61887e-13
-6.63794e-14
5.18818e-34
2.44279e-34
7.30223e-30
2.22815e-30
6.4936e-31
6.55728e-31
1.92785e-31
1.8555e-31
1.30392e-43
5.51857e-32
-5.01926e-09
-1.76707e-09
-1.87694e-08
1.39646e-09
1.34128e-38
-9.6903e-07
1.62766e-09
1.79435e-09
8.69256e-33
6.57607e-33
2.51398e-33
-9.06206e-40
2.90692e-23
2.50079e-23
-1.21485e-30
2.05695e-30
1.09097e-06
-2.62891e-06
2.42839e-06
-1.51491e-15
3.60135e-17
9.30797e-17
5.16473e-17
2.12243e-17
8.65152e-18
4.8042e-35
2.56104e-35
-6.54228e-27
-4.22275e-27
4.73493e-09
8.68339e-10
-5.81046e-10
-4.22335e-10
6.91036e-09
2.15483e-09
1.72115e-08
1.72005e-11
0.0022202
-4.84187e-19
-5.31743e-19
1.35108e-23
4.1537e-24
-0.0178987
0.00633374
3.64515e-09
1.70636e-09
4.31073e-10
2.20541e-10
1.41453e-09
1.95686e-11
-7.36485e-11
-8.50572e-11
-1.22896e-10
-7.95632e-11
-2.31612e-11
-1.26131e-11
-6.62356e-11
-3.4358e-12
2.6406e-12
3.03191e-12
2.85312e-12
2.73846e-12
5.68841e-12
2.24323e-12
5.68098e-12
1.54341e-12
1.5344e-13
-4.60852e-14
-8.49489e-14
-7.16799e-14
4.84086e-12
-2.31779e-14
-1.23072e-14
-5.67087e-14
-4.2544e-15
1.71403e-15
1.7626e-15
4.11958e-16
1.43297e-15
4.68133e-16
-0.00078331
3.1805e-06
8.41199e-22
3.34234e-22
-1.26248e-21
-2.41725e-21
-3.2827e-14
-1.21141e-07
-4.01469e-08
-4.51117e-10
5.96628e-21
6.39827e-20
-1.58455e-38
-5.4141e-38
1.28465e-05
2.22781e-05
7.24917e-06
3.78738e-06
3.90667e-06
1.80357e-06
1.81269e-26
-3.95703e-26
5.04498e-32
1.64793e-31
1.22143e-23
6.55686e-24
3.7403e-07
1.11132e-23
-2.31336e-31
2.71961e-30
2.1751e-29
1.31689e-29
3.98262e-32
1.04439e-33
1.82257e-06
3.35492e-35
-1.45177e-33
2.28076e-15
2.16203e-10
3.42201e-32
1.28863e-08
1.25803e-05
9.21557e-33
-5.16799e-07
-1.98389e-07
1.61527e-21
-5.92172e-27
-0.0184209
-0.0091063
0.0885509
0.0387893
-0.0157258
0.00982991
5.47542e-23
2.26498e-23
2.14098
2.15421e-22
1.07428e-22
8.28766e-22
4.74355e-22
3.12203e-21
2.00476e-21
1.15032e-20
8.11315e-21
3.93684e-14
5.75824e-13
1.13376e-12
2.36787e-12
3.55561e-12
2.27518e-13
1.77285e-12
-2.49119e-11
-5.6884e-11
-1.31092e-10
-2.11282e-10
-1.66091e-10
-5.17286e-11
1.81181e-09
4.16386e-09
1.00306e-08
1.64582e-08
1.62145e-08
1.56649e-08
6.83024e-10
-9.35011e-12
-8.4151e-08
-2.07355e-07
-2.65112e-08
-5.83696e-09
-4.41174e-07
-1.02018e-06
-1.59074e-06
-8.17265e-07
4.1679e-20
3.15196e-20
1.46109e-19
1.18366e-19
4.89104e-19
4.33884e-19
1.58611e-18
-2.03476e-22
-7.4056e-09
7.28941e-33
5.15081e-33
1.55093e-19
-2.27689e-40
-4.85767e-41
2.27862e-30
6.25362e-30
1.43649e-29
1.96522e-30
-1.44539e-36
-1.4013e-33
2.64141e-38
1.85741e-30
-2.52739e-30
-3.65355e-29
-2.79181e-29
-3.25787e-30
-1.71917e-29
-1.73257e-06
-1.8255e-06
1.19388e-28
5.13836e-28
-1.07441e-27
-3.39386e-33
-8.57249e-33
1.93467e-33
1.6302e-23
6.59777e-23
0.0509615
0.0507274
-8.90472e-10
-2.04429e-31
-2.01494e-30
0.41055
0.158098
0.0811824
-7.29812e-10
-2.6711e-10
-6.51855e-19
-3.13058e-19
0.0449112
-1.91149e-24
-5.49732e-10
-6.4175e-10
-1.58656e-09
-7.72215e-14
-7.32581e-14
-3.07152e-10
1.5531e-18
5.01799e-18
-2.65825e-09
-1.1158e-09
1.17536e-39
0.0277504