/*--------------------------------*- C++ -*----------------------------------*\
  =========                 |
  \\      /  F ield         | OpenFOAM: The Open Source CFD Toolbox
   \\    /   O peration     | Website:  https://openfoam.org
    \\  /    A nd           | Version:  6
     \\/     M anipulation  |
\*---------------------------------------------------------------------------*/
FoamFile
{
    version     2.0;
    format      ascii;
    class       volScalarField;
    location    "9504000";
    object      h;
}
// * * * * * * * * * * * * * * * * * * * * * * * * * * * * * * * * * * * * * //

dimensions      [0 1 0 0 0 0 0];

internalField   nonuniform List<scalar> 
11831
(
10.5016
10.0012
10.5056
10.5105
10.4764
10.4721
10.4672
10.4626
10.4577
10.453
10.4481
10.4433
10.4385
10.4337
10.4289
10.4241
10.4192
10.4145
10.4096
10.4047
10.4
10.3951
10.3904
10.3855
10.3809
10.3759
10.3709
10.3662
10.3613
10.3566
10.3517
10.3469
10.3421
10.3374
10.3326
10.3277
10.3229
10.318
10.3132
10.3084
10.3035
10.2988
10.2939
10.2891
10.2843
10.2795
10.2747
10.2698
10.265
10.2601
10.2553
10.2505
10.2458
10.241
10.2361
10.2313
10.2264
10.2216
10.2168
10.2119
10.2073
10.2023
10.1976
10.1927
10.1879
10.1831
10.1782
10.1736
10.1686
10.164
10.159
10.1542
10.1494
10.1446
10.1397
10.1349
10.1301
10.1253
10.1203
10.1156
10.1107
10.1061
10.1012
10.0965
10.0915
10.0868
10.082
10.0771
10.0723
10.0674
10.0626
10.0578
10.0529
10.0483
10.0433
10.0386
10.0337
10.0289
10.0241
10.0193
10.0145
10.0097
10.0051
10.0055
10.0101
10.015
10.0197
10.0245
10.0293
10.0342
10.039
10.0438
10.0486
10.0534
10.0582
10.0631
10.0679
10.0727
10.0775
10.0823
10.0871
10.092
10.0968
10.1016
10.1064
10.1112
10.1161
10.1209
10.1257
10.1305
10.1353
10.1402
10.145
10.1498
10.1546
10.1594
10.1642
10.1691
10.1739
10.1787
10.1835
10.1883
10.1932
10.198
10.2028
10.2076
10.2124
10.2173
10.2221
10.2269
10.2317
10.2365
10.2413
10.2462
10.251
10.2558
10.2606
10.2654
10.2703
10.2751
10.2799
10.2847
10.2895
10.2944
10.2992
10.304
10.3088
10.3136
10.3184
10.3233
10.3281
10.3329
10.3377
10.3425
10.3474
10.3522
10.357
10.3618
10.3666
10.3715
10.3763
10.3811
10.3859
10.3907
10.3955
10.4004
10.4052
10.41
10.4148
10.4196
10.4245
10.4293
10.4341
10.4389
10.4437
10.4486
10.4534
10.4582
10.463
10.4678
10.4726
10.4773
10.5154
10.5204
10.5254
10.5304
10.5354
10.5404
10.5455
10.5505
10.5555
10.5605
10.5655
10.5705
10.5755
10.5805
10.5855
10.5905
10.5955
10.6005
10.6055
10.6105
10.6155
10.6205
10.6255
10.6305
10.6355
10.6405
10.6455
10.6506
10.6556
10.6606
10.6656
10.6706
10.6756
10.6806
10.6856
10.6906
10.6956
10.7006
10.7056
10.7106
10.7156
10.7206
10.7256
10.7306
10.7356
10.7406
10.7456
10.7506
10.7556
10.7606
10.7656
10.7707
10.7757
10.7807
10.7857
10.7907
10.7957
10.8007
10.8057
10.8107
10.8157
10.8207
10.8257
10.8307
10.8357
10.8407
10.8457
10.8507
10.8557
10.8607
10.8657
10.8707
10.8757
10.8807
10.8858
10.8908
10.8958
10.9008
10.9058
10.9107
10.9157
10.9209
10.9257
10.9308
10.9359
10.9409
10.9458
10.9508
10.9558
10.9608
10.9658
10.9707
10.9758
10.981
10.9858
10.9909
10.9957
10.9992
10.9949
10.99
10.985
10.98
10.975
10.97
10.965
10.96
10.955
10.95
10.945
10.94
10.935
10.93
10.925
10.92
10.915
10.91
10.9049
10.8999
10.8949
10.8899
10.8848
10.8799
10.8748
10.87
10.8649
10.86
10.8549
10.8498
10.8449
10.8398
10.8349
10.8299
10.8249
10.8199
10.8148
10.8099
10.8048
10.7998
10.7949
10.7899
10.7848
10.7798
10.7748
10.7698
10.7648
10.7598
10.7548
10.7498
10.7448
10.7399
10.7348
10.7299
10.7248
10.7198
10.7148
10.7098
10.7048
10.6997
10.6948
10.6898
10.6847
10.6798
10.6747
10.6698
10.6648
10.6597
10.6547
10.6497
10.6447
10.6397
10.6347
10.6297
10.6247
10.6197
10.6147
10.6097
10.6047
10.5997
10.5947
10.5896
10.5847
10.5796
10.5747
10.5696
10.5647
10.5596
10.5546
10.5497
10.5446
10.5397
10.5346
10.5295
10.5246
10.5195
10.5147
10.5096
10.5048
10.501
10.2472
10.7588
10.7395
10.2423
10.7141
10.2038
10.7841
10.2854
10.2906
10.1983
10.8046
10.6942
10.8246
10.3237
10.6744
10.1652
10.6542
10.1599
10.8447
10.3293
10.3573
10.1314
10.8598
10.6392
10.3631
10.1259
10.8793
10.6194
10.1024
10.6094
10.3877
10.8898
10.0968
10.5891
10.3922
10.9098
10.0783
10.5838
10.4102
10.915
10.073
10.5639
10.4165
10.9343
10.0542
10.5577
10.4351
10.9399
10.2665
10.7791
10.2224
10.7193
10.0539
10.5437
10.7347
10.2231
10.7638
10.2656
10.6741
10.1795
10.1845
10.4362
10.6946
10.8248
10.9542
10.3099
10.8044
10.3048
10.0346
10.5234
10.4562
10.9737
10.0349
10.5378
10.4549
10.9601
10.1405
10.6341
10.112
10.604
10.6247
10.1169
10.6597
10.1507
10.3433
10.8397
10.3777
10.3438
10.8648
10.8945
10.3723
10.8748
10.5072
10.0201
10.9858
10.4725
10.0206
10.4706
10.5203
10.974
10.574
10.0687
10.0827
10.574
10.0446
10.5481
10.088
10.5934
10.0633
10.5538
10.0449
10.5335
10.2761
10.7694
10.7899
10.2568
10.6643
10.1706
10.2516
10.7495
10.2375
10.7494
10.1748
10.6853
10.2319
10.7295
10.7093
10.213
10.6442
10.1505
10.141
10.4253
10.6495
10.9303
10.7942
10.2946
10.7248
10.2134
10.8146
10.3141
10.3966
10.8997
10.8497
10.4263
10.1941
10.4461
10.4019
10.3003
10.4449
10.9643
10.9245
10.7046
10.945
10.1887
10.6842
10.8148
10.3341
10.3535
10.8348
10.8541
10.3196
10.7743
10.2759
10.95
10.4957
10.0108
10.9733
10.4874
10.252
10.2541
10.2493
10.2562
10.2514
10.2583
10.2534
10.2604
10.2555
10.2625
10.2576
10.2645
10.2596
10.2666
10.2714
10.2735
10.2686
10.2755
10.2706
10.2776
10.2726
10.2796
10.2746
10.2816
10.2766
10.2836
10.2786
10.2856
10.2806
10.2875
10.2925
10.2945
10.2994
10.3014
10.3064
10.3083
10.3133
10.3153
10.3203
10.3222
10.3272
10.3292
10.3342
10.3362
10.3412
10.3431
10.3482
10.3501
10.3551
10.3571
10.352
10.359
10.3641
10.366
10.3711
10.373
10.3679
10.3749
10.38
10.3819
10.3768
10.3838
10.3889
10.3908
10.3857
10.3927
10.3876
10.3945
10.3996
10.4015
10.4066
10.4085
10.4034
10.4104
10.4155
10.4173
10.4122
10.4192
10.4243
10.4261
10.421
10.428
10.4331
10.435
10.4298
10.4368
10.4317
10.4386
10.4438
10.4456
10.4404
10.4474
10.4525
10.4544
10.4595
10.4613
10.4562
10.4631
10.4683
10.4701
10.4649
10.4719
10.477
10.4788
10.4737
10.4806
10.4754
10.4858
10.4876
10.4927
10.4945
10.4997
10.5015
10.5066
10.5084
10.5136
10.5153
10.5205
10.2964
10.5223
10.5275
10.5292
10.5241
10.5344
10.5327
10.5396
10.5379
10.5448
10.531
10.5258
10.5431
10.5328
10.5276
10.55
10.5483
10.5345
10.5293
10.5552
10.5535
10.5363
10.5311
10.5604
10.538
10.5328
10.5587
10.5656
10.5398
10.5346
10.5639
10.5709
10.5415
10.5363
10.5691
10.5432
10.5381
10.5761
10.5743
10.545
10.5398
10.5813
10.5467
10.5416
10.5796
10.5865
10.5485
10.5433
10.5364
10.5381
10.5312
10.533
10.526
10.5278
10.5209
10.5226
10.5157
10.5175
10.5106
10.5123
10.5054
10.5071
10.5002
10.502
10.4951
10.4968
10.4899
10.4916
10.4847
10.4865
10.4796
10.4813
10.5848
10.4744
10.5918
10.5935
10.5244
10.4882
10.4831
10.5988
10.6005
10.59
10.49
10.4848
10.6057
10.6075
10.6127
10.6144
10.4917
10.4865
10.6197
10.6214
10.4934
10.4883
10.6266
10.6283
10.6336
10.6353
10.4952
10.49
10.6319
10.6406
10.6423
10.6475
10.6492
10.4969
10.4918
10.4848
10.4866
10.4797
10.4814
10.6545
10.6562
10.4935
10.4745
10.6614
10.6631
10.4762
10.6684
10.67
10.4693
10.6753
10.677
10.4711
10.6736
10.6822
10.6839
10.5502
10.4641
10.6892
10.6908
10.6856
10.6925
10.6872
10.6941
10.6889
10.6958
10.6905
10.6974
10.6922
10.7027
10.7043
10.7096
10.583
10.5883
10.5813
10.5865
10.5796
10.5848
10.5778
10.583
10.576
10.5813
10.5743
10.5795
10.5725
10.5778
10.5707
10.576
10.569
10.5742
10.5672
10.5725
10.5654
10.5813
10.5707
10.5636
10.5689
10.5618
10.5671
10.56
10.7112
10.7165
10.4659
10.5653
10.5582
10.5635
10.5564
10.5724
10.459
10.7181
10.7234
10.4727
10.5617
10.5546
10.4607
10.4676
10.4624
10.4693
10.725
10.7302
10.5599
10.5528
10.4538
10.3532
10.4641
10.4711
10.5581
10.551
10.7318
10.7266
10.7371
10.5563
10.5492
10.4659
10.4728
10.5634
10.4676
10.4745
10.5545
10.5473
10.542
10.5402
10.5455
10.5384
10.533
10.5312
10.5365
10.5293
10.524
10.5221
10.5274
10.5203
10.5149
10.513
10.5184
10.5111
10.5058
10.5039
10.5092
10.7387
10.744
10.4986
10.502
10.5073
10.4693
10.4763
10.7456
10.7508
10.7493
10.7561
10.7545
10.7614
10.471
10.478
10.4624
10.7598
10.5
10.5054
10.7667
10.4728
10.4797
10.7577
10.7651
10.4745
10.4815
10.4867
10.4884
10.4936
10.4832
10.4981
10.5034
10.5512
10.4954
10.5006
10.772
10.5554
10.5571
10.4675
10.4658
10.4606
10.4589
10.4537
10.452
10.4468
10.4451
10.4399
10.4382
10.433
10.4313
10.4261
10.4244
10.4193
10.4175
10.4124
10.4106
10.4055
10.4038
10.3986
10.3969
10.3917
10.39
10.3849
10.3831
10.378
10.3763
10.3711
10.3694
10.3729
10.3643
10.3625
10.3574
10.3557
10.3506
10.3488
10.3437
10.342
10.3369
10.3351
10.33
10.3283
10.3334
10.3265
10.3316
10.3248
10.3197
10.318
10.323
10.3162
10.3111
10.3094
10.3144
10.3076
10.3025
10.3008
10.3386
10.2957
10.2939
10.299
10.2922
10.2871
10.2854
10.2904
10.2836
10.2886
10.2818
10.2768
10.275
10.28
10.2732
10.2682
10.2664
10.2614
10.2596
10.2546
10.2528
10.2782
10.2478
10.246
10.241
10.2392
10.2442
10.2374
10.2324
10.2306
10.2356
10.2256
10.2238
10.3745
10.2188
10.217
10.4961
10.5014
10.5088
10.212
10.7704
10.5068
10.5623
10.564
10.5024
10.5076
10.7773
10.5141
10.5692
10.5709
10.2102
10.2053
10.4995
10.5048
10.2784
10.2427
10.7758
10.5761
10.5778
10.5093
10.5145
10.4975
10.5029
10.583
10.5847
10.2035
10.1985
10.2003
10.7826
10.7842
10.5601
10.5899
10.5916
10.5968
10.5985
10.5934
10.6003
10.5951
10.602
10.6072
10.6089
10.6037
10.6106
10.6055
10.6123
10.6072
10.6141
10.6192
10.6089
10.6158
10.6107
10.6175
10.6124
10.6193
10.6141
10.621
10.6159
10.6228
10.6279
10.6176
10.6296
10.6348
10.5163
10.5215
10.7811
10.1935
10.7895
10.791
10.4089
10.1917
10.4955
10.5009
10.7964
10.7979
10.1868
10.1953
10.6365
10.6416
10.5233
10.5181
10.5285
10.8032
10.8047
10.185
10.18
10.2084
10.644
10.4364
10.3242
10.4072
10.4908
10.4935
10.4989
10.5063
10.5043
10.5882
10.5117
10.8101
10.8116
10.6434
10.6485
10.5251
10.5199
10.5673
10.1782
10.1733
10.4968
10.5023
10.8086
10.8169
10.8184
10.5088
10.5622
10.6502
10.6554
10.6451
10.5269
10.5217
10.8238
10.8252
10.8199
10.8267
10.8213
10.832
10.1715
10.1665
10.1683
10.4948
10.5002
10.1616
10.6107
10.6125
10.8335
10.8388
10.5287
10.5235
10.6571
10.6622
10.5517
10.3253
10.1598
10.1634
10.1549
10.4927
10.4982
10.5021
10.7742
10.7795
10.7726
10.778
10.7711
10.7764
10.7695
10.7748
10.7679
10.7733
10.7663
10.7717
10.7647
10.7701
10.7631
10.7786
10.8402
10.8456
10.5305
10.5253
10.5357
10.664
10.6691
10.6673
10.6742
10.6725
10.6793
10.6776
10.6844
10.6827
10.6895
10.6878
10.6947
10.693
10.6998
10.6981
10.7049
10.7032
10.71
10.7083
10.7152
10.7015
10.7135
10.7203
10.5883
10.5259
10.5449
10.7685
10.7615
10.6056
10.6074
10.5267
10.5337
10.5319
10.5388
10.5371
10.544
10.5422
10.5492
10.2737
10.1531
10.1481
10.4906
10.4852
10.4961
10.5037
10.5016
10.5092
10.7669
10.7599
10.7186
10.7254
10.6005
10.6861
10.5375
10.5427
10.722
10.847
10.8524
10.851
10.5071
10.7653
10.7583
10.8578
10.494
10.7238
10.7306
10.1464
10.1414
10.602
10.5147
10.8564
10.7723
10.7637
10.7567
10.7514
10.7497
10.7444
10.7428
10.7481
10.7411
10.7358
10.7341
10.7288
10.7271
10.7218
10.7201
10.7148
10.7131
10.7185
10.7115
10.7061
10.7045
10.7098
10.7028
10.6975
10.6958
10.7012
10.6941
10.6995
10.6925
10.6905
10.6978
10.6908
10.6962
10.6891
10.6838
10.6821
10.6874
10.6804
10.6767
10.7465
10.6858
10.6787
10.7032
10.8591
10.8645
10.5445
10.5497
10.7289
10.7357
10.7221
10.5127
10.1396
10.1446
10.1347
10.1365
10.1298
10.6841
10.677
10.6022
10.5953
10.8659
10.8713
10.5515
10.5567
10.5204
10.1316
10.6824
10.6753
10.67
10.6683
10.6629
10.6612
10.6666
10.6595
10.6558
10.6853
10.6869
10.68
10.6817
10.6748
10.6765
10.6696
10.6712
10.6643
10.666
10.6591
10.6608
10.1764
10.452
10.4469
10.6161
10.7341
10.7409
10.7425
10.7477
10.7493
10.7544
10.7528
10.7596
10.7612
10.7663
10.7647
10.7715
10.7699
10.7766
10.4881
10.6729
10.7751
10.7818
10.6649
10.6578
10.4451
10.44
10.1329
10.6632
10.6561
10.6895
10.5184
10.1249
10.4382
10.433
10.6539
10.6556
10.5971
10.5902
10.7802
10.787
10.7782
10.8726
10.878
10.5183
10.5201
10.513
10.5148
10.5078
10.5096
10.5026
10.5044
10.4973
10.4991
10.492
10.4938
10.4867
10.4885
10.4814
10.4832
10.5062
10.4761
10.4743
10.469
10.4673
10.4778
10.4849
10.4619
10.4602
10.4796
10.4867
10.4549
10.4532
10.4814
10.4885
10.4479
10.4462
10.4831
10.5884
10.5833
10.5815
10.4903
10.5585
10.5637
10.526
10.4313
10.4262
10.4279
10.421
10.4227
10.4158
10.4175
10.4106
10.4123
10.4054
10.4071
10.4002
10.4019
10.395
10.3933
10.3967
10.3881
10.3864
10.3812
10.3796
10.3744
10.3727
10.3675
10.3658
10.3606
10.359
10.3692
10.3538
10.3521
10.3469
10.3453
10.3401
10.3384
10.3642
10.3333
10.3316
10.3368
10.3299
10.3248
10.3231
10.3418
10.4193
10.3283
10.3214
10.3163
10.3146
10.3095
10.3078
10.3027
10.301
10.5764
10.5746
10.3266
10.1266
10.2959
10.2942
10.2993
10.2925
10.4849
10.2874
10.2857
10.2909
10.2841
10.6615
10.6544
10.649
10.6473
10.6419
10.6402
10.6456
10.6385
10.6439
10.6368
10.6314
10.6297
10.6351
10.628
10.6225
10.6208
10.6263
10.6191
10.6137
10.6119
10.6174
10.6102
10.6047
10.603
10.6085
10.6013
10.4408
10.4392
10.2789
10.2773
10.2824
10.2756
10.2807
10.2739
10.2688
10.2671
10.2722
10.2654
10.2603
10.2586
10.2637
10.257
10.2519
10.2502
10.2451
10.2434
10.2485
10.2417
10.2366
10.2349
10.24
10.2332
10.2383
10.2315
10.2265
10.2248
10.2197
10.218
10.5279
10.476
10.604
10.5988
10.6057
10.6006
10.6075
10.6024
10.6093
10.6042
10.6111
10.6059
10.6128
10.6077
10.6146
10.6095
10.6164
10.6215
10.6233
10.6284
10.6182
10.6302
10.6353
10.5976
10.7164
10.7578
10.2975
10.4338
10.4322
10.12
10.5336
10.5355
10.4425
10.8793
10.8739
10.8847
10.8835
10.8902
10.4921
10.4975
10.4867
10.6371
10.6422
10.5656
10.5707
10.5604
10.5241
10.5164
10.6686
10.6068
10.5995
10.213
10.2113
10.7854
10.7921
10.2366
10.7735
10.6487
10.647
10.6504
10.4036
10.3983
10.4052
10.4
10.4069
10.4017
10.4086
10.4033
10.3964
10.3981
10.3912
10.3929
10.386
10.3876
10.3807
10.3824
10.4268
10.6961
10.5221
10.5144
10.4103
10.6418
10.6401
10.5695
10.5677
10.2062
10.2045
10.2096
10.2028
10.1217
10.605
10.5978
10.1978
10.1961
10.2011
10.1943
10.1893
10.1876
10.889
10.3755
10.5412
10.543
10.4375
10.8417
10.681
10.7066
10.6708
10.5048
10.4963
10.5725
10.5353
10.614
10.5923
10.4571
10.7937
10.7989
10.8004
10.8056
10.2845
10.2434
10.6573
10.1182
10.1133
10.1115
10.2657
10.2757
10.2688
10.2707
10.2638
10.2658
10.2589
10.2609
10.254
10.2559
10.2491
10.251
10.2579
10.2529
10.2598
10.2549
10.2617
10.248
10.2499
10.2431
10.245
10.2381
10.24
10.2332
10.2351
10.2419
10.2283
10.237
10.2438
10.2313
10.2389
10.2457
10.2408
10.2476
10.252
10.2339
10.6945
10.5089
10.6528
10.6349
10.6332
10.628
10.6263
10.6211
10.6194
10.2416
10.8806
10.8752
10.8071
10.8123
10.494
10.4885
10.5726
10.5777
10.5758
10.5828
10.644
10.6491
10.6389
10.4813
10.5201
10.5123
10.8957
10.8969
10.5487
10.3771
10.6033
10.2079
10.1066
10.1048
10.7906
10.2358
10.229
10.6142
10.8108
10.8175
10.5404
10.5335
10.6123
10.1826
10.1809
10.6521
10.659
10.4279
10.1994
10.581
10.5879
10.5961
10.6125
10.7014
10.6997
10.8818
10.8765
10.5796
10.1759
10.1742
10.0999
10.0981
10.5181
10.5103
10.6538
10.6606
10.5658
10.5626
10.5608
10.2484
10.9024
10.4831
10.3702
10.3686
10.8945
10.6016
10.8138
10.6458
10.6407
10.4904
10.9035
10.5712
10.6555
10.6623
10.6571
10.478
10.2467
10.1692
10.1674
10.4758
10.816
10.8226
10.2309
10.224
10.4585
10.6072
10.664
10.6692
10.6588
10.7641
10.1724
10.1657
10.3718
10.3787
10.1776
10.3634
10.3617
10.9091
10.4849
10.1017
10.5161
10.5082
10.5023
10.5002
10.4944
10.526
10.3945
10.5944
10.5999
10.6055
10.6657
10.6726
10.4365
10.4921
10.4864
10.4979
10.1607
10.159
10.0932
10.0915
10.0964
10.5387
10.5317
10.599
10.5861
10.5931
10.5949
10.6
10.4933
10.2526
10.2544
10.2594
10.2613
10.2663
10.2681
10.2731
10.275
10.28
10.2818
10.2868
10.2887
10.2937
10.2956
10.3006
10.3025
10.3075
10.3093
10.3144
10.3162
10.3213
10.3231
10.3181
10.325
10.33
10.3319
10.3268
10.3337
10.3387
10.3406
10.3355
10.3424
10.3475
10.3493
10.3442
10.3511
10.3461
10.353
10.358
10.3599
10.3548
10.3617
10.3667
10.3686
10.3635
10.3704
10.3755
10.3773
10.3824
10.3842
10.3791
10.3859
10.3911
10.3928
10.398
10.3997
10.3808
10.3194
10.2837
10.4049
10.4067
10.2918
10.4015
10.4084
10.4136
10.4153
10.4102
10.4171
10.4222
10.424
10.4292
10.4309
10.4361
10.4378
10.443
10.4447
10.4499
10.4517
10.2631
10.4568
10.4031
10.4586
10.4396
10.412
10.4343
10.4637
10.4655
10.4603
10.7833
10.8831
10.8778
10.4922
10.9102
10.6476
10.6426
10.154
10.6019
10.0866
10.9157
10.4867
10.3565
10.3549
10.3735
10.6072
10.5556
10.5539
10.5591
10.5521
10.5573
10.2535
10.3803
10.6486
10.6107
10.4676
10.6228
10.6709
10.6761
10.6404
10.7067
10.705
10.1707
10.1284
10.1235
10.4305
10.4358
10.5926
10.5871
10.5982
10.8211
10.8278
10.8293
10.8345
10.836
10.8412
10.2259
10.2191
10.6038
10.6003
10.4955
10.7994
10.8087
10.8154
10.8103
10.4486
10.2172
10.2123
10.2104
10.2055
10.2036
10.1987
10.1968
10.1919
10.1901
10.1851
10.1833
10.1784
10.1765
10.1716
10.1814
10.1697
10.1649
10.1667
10.16
10.2006
10.163
10.1618
10.1551
10.3539
10.6315
10.6669
10.674
10.6723
10.6794
10.6778
10.5935
10.5243
10.5675
10.5397
10.2652
10.7529
10.2206
10.5504
10.5556
10.4672
10.4621
10.4724
10.0897
10.0946
10.5369
10.53
10.5438
10.2517
10.245
10.607
10.484
10.4783
10.9147
10.6848
10.3751
10.3496
10.348
10.382
10.6679
10.4728
10.6675
10.6743
10.712
10.7103
10.7034
10.8397
10.6778
10.6829
10.25
10.2432
10.5912
10.8169
10.8118
10.8426
10.8478
10.9167
10.9223
10.8843
10.4941
10.4996
10.4886
10.6088
10.6139
10.6495
10.6545
10.3767
10.3428
10.3412
10.6399
10.6886
10.5778
10.5219
10.3847
10.6832
10.3682
10.5909
10.5965
10.7087
10.7017
10.609
10.6021
10.4121
10.5486
10.5538
10.455
10.469
10.4638
10.5351
10.1302
10.1252
10.4759
10.4703
10.4728
10.4648
10.4673
10.4594
10.4618
10.454
10.4564
10.4487
10.4511
10.4434
10.4458
10.4381
10.4406
10.4329
10.4353
10.4278
10.4302
10.4226
10.425
10.4175
10.4199
10.4273
10.4222
10.4148
10.4171
10.4097
10.412
10.4193
10.4142
10.4069
10.4091
10.4165
10.4114
10.404
10.4063
10.399
10.4012
10.4085
10.4034
10.3961
10.3983
10.4055
10.4005
10.3932
10.3954
10.4026
10.3975
10.3903
10.3925
10.3996
10.3853
10.3946
10.4017
10.3967
10.4038
10.3987
10.4059
10.4008
10.4079
10.3937
10.4028
10.41
10.4049
10.412
10.4069
10.414
10.4089
10.416
10.4018
10.4211
10.4231
10.418
10.4251
10.4131
10.4303
10.4322
10.4271
10.4342
10.4393
10.4413
10.4361
10.4432
10.4484
10.4503
10.4452
10.4522
10.4574
10.4593
10.4541
10.4612
10.4664
10.4683
10.4631
10.4702
10.465
10.4721
10.4735
10.4669
10.4739
10.4598
10.4791
10.481
10.4758
10.4828
10.4777
10.4847
10.488
10.4795
10.4865
10.4814
10.4884
10.4936
10.4954
10.4902
10.4972
10.5024
10.5042
10.499
10.5061
10.5009
10.5079
10.4743
10.5094
10.5027
10.5097
10.5149
10.4957
10.5045
10.5115
10.4811
10.3836
10.5487
10.6692
10.6761
10.6811
10.6829
10.688
10.6897
10.6948
10.6966
10.7016
10.6915
10.7034
10.7085
10.7102
10.7153
10.7135
10.7203
10.7186
10.7254
10.7237
10.7305
10.7288
10.7355
10.7338
10.7406
10.7389
10.7457
10.744
10.7508
10.7491
10.7558
10.7541
10.7609
10.2585
10.4289
10.4342
10.1569
10.1502
10.1483
10.1434
10.1637
10.1416
10.1367
10.1386
10.1318
10.221
10.2278
10.551
10.5561
10.5282
10.602
10.5951
10.0879
10.0928
10.2483
10.2415
10.8791
10.8712
10.5248
10.2603
10.6865
10.6919
10.6936
10.2667
10.7136
10.6144
10.2653
10.267
10.6121
10.619
10.3783
10.3852
10.3444
10.699
10.7006
10.7271
10.8492
10.8544
10.7575
10.5016
10.5071
10.6158
10.6107
10.6564
10.6614
10.6513
10.336
10.3343
10.4829
10.8185
10.8134
10.7423
10.8856
10.8909
10.9232
10.9288
10.5892
10.5948
10.6021
10.7592
10.766
10.3396
10.3327
10.3275
10.3259
10.5625
10.4244
10.2686
10.2736
10.1337
10.127
10.1251
10.1203
10.1221
10.1154
10.7173
10.671
10.6641
10.5469
10.5521
10.5417
10.4429
10.4708
10.6846
10.6898
10.6794
10.6881
10.695
10.6933
10.7002
10.6985
10.7054
10.7037
10.7106
10.7122
10.7174
10.2721
10.2738
10.5063
10.5133
10.4202
10.4462
10.706
10.7077
10.1588
10.1655
10.707
10.7001
10.4272
10.4325
10.4394
10.4378
10.4447
10.2228
10.2296
10.3601
10.5673
10.4656
10.4587
10.5469
10.5544
10.5526
10.5601
10.5584
10.5659
10.6073
10.6004
10.5952
10.5206
10.6761
10.6815
10.6744
10.5361
10.5579
10.5631
10.3044
10.6575
10.6505
10.6522
10.6451
10.6468
10.6397
10.6415
10.6344
10.6361
10.6327
10.6273
10.6256
10.6202
10.6185
10.6132
10.6149
10.6114
10.4969
10.8877
10.8933
10.8865
10.892
10.8852
10.8907
10.8839
10.8894
10.8825
10.8976
10.8881
10.8811
10.8756
10.8742
10.8687
10.8673
10.8618
10.8603
10.8658
10.8589
10.8534
10.8519
10.8465
10.845
10.8504
10.8435
10.838
10.8365
10.842
10.835
10.8404
10.8335
10.8389
10.8319
10.8311
10.8265
10.8249
10.8304
10.8234
10.8459
10.8288
10.8218
10.8195
10.5968
10.5899
10.5505
10.5436
10.0862
10.0813
10.1319
10.127
10.1203
10.122
10.1154
10.1171
10.4622
10.1104
10.8272
10.8202
10.8148
10.8132
10.5642
10.8867
10.8186
10.8116
10.3799
10.3868
10.6005
10.4753
10.6799
10.6728
10.3207
10.3191
10.8558
10.861
10.8507
10.6061
10.6043
10.6097
10.6026
10.6079
10.6008
10.5505
10.5449
10.443
10.45
10.7643
10.7711
10.7727
10.7778
10.7761
10.7829
10.7812
10.722
10.6648
10.6062
10.599
10.2755
10.2805
10.7191
10.7243
10.8062
10.8046
10.81
10.803
10.7976
10.796
10.8014
10.7944
10.789
10.7874
10.7928
10.7858
10.7804
10.7788
10.7842
10.7771
10.7718
10.7701
10.7647
10.7631
10.7577
10.7561
10.7615
10.7545
10.7598
10.7528
10.7507
10.7582
10.7512
10.7458
10.7441
10.7495
10.7425
10.7371
10.7355
10.7409
10.6863
10.6811
10.2465
10.2397
10.2789
10.2806
10.7652
10.8201
10.815
10.7845
10.6632
10.6683
10.5091
10.5145
10.8921
10.8974
10.9297
10.9353
10.9345
10.941
10.6177
10.6126
10.1122
10.1188
10.6782
10.6711
10.8937
10.687
10.3139
10.3123
10.3175
10.3106
10.1172
10.091
10.8869
10.5523
10.5467
10.7301
10.7896
10.2527
10.7576
10.9242
10.0995
10.8067
10.8252
10.4988
10.2018
10.7259
10.7311
10.7295
10.7363
10.7379
10.7431
10.2824
10.2873
10.7217
10.2893
10.2942
10.2962
10.3011
10.3031
10.3081
10.31
10.315
10.6432
10.6378
10.6449
10.6395
10.6466
10.6413
10.6342
10.6359
10.643
10.6377
10.6447
10.6394
10.6464
10.6411
10.6481
10.6428
10.6498
10.6445
10.6515
10.6341
10.6289
10.6462
10.6532
10.6392
10.6585
10.6602
10.6549
10.6619
10.6672
10.3169
10.3219
10.3238
10.3288
10.3307
10.3357
10.3376
10.6172
10.8342
10.373
10.6077
10.7131
10.4773
10.4848
10.3055
10.3038
10.309
10.3022
10.3814
10.3883
10.5717
10.297
10.2954
10.3006
10.2938
10.2886
10.287
10.6566
10.6636
10.1606
10.1673
10.4308
10.5542
10.5486
10.1184
10.2246
10.2315
10.5934
10.5882
10.7423
10.3889
10.3379
10.7089
10.7415
10.7483
10.4605
10.4535
10.6044
10.5973
10.5987
10.5549
10.5452
10.5503
10.5572
10.6659
10.659
10.6517
10.3427
10.3446
10.4725
10.4777
10.4588
10.5917
10.5847
10.583
10.2533
10.2857
10.2875
10.0844
10.0892
10.7284
10.5081
10.5011
10.5151
10.5202
10.5734
10.599
10.7054
10.7124
10.6984
10.6931
10.2347
10.233
10.5649
10.57
10.5682
10.5752
10.5734
10.5555
10.5624
10.5453
10.5384
10.5367
10.5315
10.2516
10.1337
10.1386
10.383
10.3899
10.6665
10.6733
10.6715
10.6784
10.6766
10.6834
10.6816
10.6885
10.2704
10.7044
10.7825
10.5798
10.4796
10.3843
10.5986
10.611
10.2178
10.5502
10.6142
10.6357
10.5125
10.5198
10.5178
10.5251
10.5231
10.5304
10.5284
10.5357
10.5337
10.5409
10.5389
10.5461
10.5441
10.5513
10.5493
10.5564
10.5369
10.5545
10.5616
10.5596
10.5667
10.5525
10.5648
10.5718
10.5699
10.577
10.5311
10.5466
10.8144
10.8196
10.8129
10.8182
10.8114
10.8167
10.8099
10.8234
10.1055
10.1037
10.8923
10.6061
10.6766
10.6695
10.4694
10.468
10.5792
10.2818
10.2802
10.5701
10.5626
10.1139
10.1206
10.8624
10.8676
10.6802
10.5584
10.5738
10.8216
10.8166
10.5219
10.5429
10.8986
10.9039
10.936
10.3155
10.9403
10.4793
10.4868
10.8596
10.1624
10.5919
10.5901
10.5955
10.5884
10.583
10.5812
10.5866
10.5794
10.5741
10.5723
10.2265
10.2333
10.2383
10.2401
10.2451
10.2469
10.2519
10.2537
10.2587
10.2606
10.2656
10.2674
10.2724
10.2742
10.2792
10.2811
10.2861
10.2879
10.2929
10.2948
10.2692
10.556
10.5504
10.4483
10.4553
10.457
10.3937
10.5875
10.5411
10.5917
10.299
10.2824
10.2892
10.2943
10.296
10.2909
10.2977
10.5778
10.5761
10.664
10.6624
10.6678
10.6607
10.6133
10.6552
10.6536
10.6591
10.6519
10.6464
10.6448
10.6503
10.6431
10.6487
10.6415
10.5776
10.5705
10.5651
10.5633
10.5686
10.5614
10.5668
10.5596
10.565
10.5578
10.5524
10.5505
10.556
10.5487
10.5541
10.5468
10.5451
10.7021
10.7073
10.3269
10.2992
10.7467
10.7535
10.577
10.5969
10.4553
10.4484
10.5791
10.2998
10.3016
10.2966
10.3034
10.3085
10.3103
10.3052
10.3121
10.307
10.3139
10.3189
10.3207
10.3157
10.3225
10.3175
10.3243
10.3294
10.3312
10.3363
10.3381
10.333
10.3398
10.3449
10.3467
10.3416
10.3485
10.3536
10.3553
10.3503
10.3571
10.3622
10.364
10.3691
10.3709
10.376
10.3777
10.3496
10.3515
10.3465
10.3534
10.3483
10.3553
10.3603
10.3622
10.3571
10.3641
10.3691
10.371
10.3659
10.3728
10.3779
10.3798
10.3747
10.3816
10.3867
10.3885
10.3835
10.3904
10.3955
10.3973
10.3922
10.3991
10.4042
10.4061
10.401
10.4079
10.413
10.4148
10.688
10.6828
10.6759
10.6776
10.6708
10.6725
10.6656
10.6673
10.6605
10.6622
10.6553
10.6536
10.657
10.7207
10.4794
10.4846
10.5865
10.5523
10.545
10.3726
10.3795
10.3846
10.3864
10.8219
10.8286
10.7447
10.4219
10.3028
10.3045
10.2994
10.3062
10.3113
10.313
10.3079
10.3148
10.3199
10.3216
10.3267
10.3284
10.3335
10.3352
10.3233
10.3404
10.3421
10.3472
10.3489
10.3541
10.3558
10.3609
10.3626
10.3575
10.3643
10.3695
10.3712
10.3763
10.378
10.3832
10.3849
10.3901
10.3592
10.3798
10.3918
10.3969
10.3987
10.4038
10.3815
10.4055
10.4107
10.4004
10.409
10.4159
10.5821
10.723
10.5029
10.7148
10.7202
10.7094
10.522
10.5272
10.0826
10.0874
10.6241
10.4959
10.7912
10.6196
10.6145
10.6246
10.3846
10.3915
10.9467
10.4809
10.4887
10.5685
10.5609
10.8993
10.1156
10.1223
10.275
10.2734
10.2786
10.2718
10.6133
10.615
10.4623
10.4607
10.6583
10.6513
10.5578
10.7523
10.7453
10.5579
10.352
10.7107
10.7177
10.4622
10.464
10.4692
10.7963
10.6502
10.6748
10.1692
10.1741
10.1759
10.5596
10.6867
10.6935
10.6953
10.7004
10.6701
10.6653
10.7546
10.2279
10.2262
10.5619
10.1774
10.1757
10.1824
10.1807
10.1874
10.1739
10.1789
10.1722
10.1772
10.5137
10.1233
10.1166
10.1214
10.8605
10.5988
10.5126
10.7636
10.7706
10.506
10.717
10.7664
10.2578
10.7857
10.1679
10.1611
10.166
10.1592
10.1641
10.1573
10.1622
10.169
10.1671
10.1738
10.1719
10.1787
10.1768
10.1836
10.1817
10.1885
10.1865
10.1933
10.1914
10.1982
10.1963
10.2031
10.2011
10.208
10.206
10.1904
10.2128
10.2109
10.1525
10.2148
10.2177
10.2157
10.2226
10.2206
10.2275
10.2255
10.2324
10.2304
10.1797
10.1603
10.1943
10.2372
10.2352
10.2138
10.2284
10.2332
10.4089
10.4637
10.3096
10.5628
10.0777
10.5191
10.6022
10.3895
10.9027
10.7442
10.761
10.3978
10.3761
10.6931
10.7862
10.8375
10.1506
10.1457
10.4697
10.3554
10.7065
10.6301
10.6837
10.3369
10.1899
10.5006
10.4934
10.4953
10.4881
10.49
10.4828
10.4809
10.4848
10.4757
10.4737
10.4685
10.4665
10.4613
10.4593
10.4919
10.4867
10.4939
10.4886
10.4958
10.4815
10.4541
10.4521
10.4573
10.4501
10.4553
10.4481
10.4533
10.446
10.4512
10.4439
10.4491
10.4905
10.4977
10.4561
10.4419
10.4471
10.4544
10.4523
10.445
10.4502
10.4924
10.4996
10.4489
10.5048
10.5067
10.5014
10.5085
10.5033
10.5104
10.5052
10.5123
10.5157
10.507
10.5141
10.4367
10.4596
10.5089
10.516
10.4509
10.5107
10.5178
10.5126
10.5196
10.5249
10.5267
10.5214
10.5285
10.4429
10.5319
10.5119
10.204
10.4589
10.6536
10.485
10.2619
10.4285
10.8479
10.8326
10.8256
10.8272
10.8202
10.8187
10.4296
10.567
10.4038
10.3967
10.3987
10.3916
10.3936
10.3866
10.3846
10.3795
10.3775
10.3724
10.3704
10.3654
10.3634
10.3583
10.3563
10.3513
10.3493
10.3442
10.3422
10.3472
10.3402
10.3451
10.3381
10.3431
10.336
10.341
10.3339
10.3389
10.3318
10.3368
10.3269
10.3352
10.3247
10.3886
10.3198
10.3177
10.3128
10.3533
10.3149
10.3956
10.3905
10.3976
10.3925
10.3996
10.3501
10.3438
10.3417
10.3107
10.3156
10.3079
10.31
10.3945
10.4015
10.3855
10.3964
10.4035
10.3029
10.305
10.3085
10.3134
10.3488
10.3467
10.3684
10.4086
10.4105
10.4054
10.4124
10.4175
10.4195
10.4144
10.4214
10.4163
10.4233
10.4265
10.3064
10.3113
10.3015
10.3674
10.3894
10.7395
10.1839
10.5129
10.17
10.6964
10.4171
10.2636
10.8632
10.5212
10.4413
10.4466
10.4396
10.4449
10.7128
10.7317
10.7509
10.7458
10.7095
10.5283
10.3915
10.3933
10.3984
10.4001
10.4053
10.407
10.4122
10.4139
10.4191
10.7621
10.8644
10.4176
10.4227
10.4617
10.4547
10.4565
10.6309
10.576
10.6871
10.2722
10.5848
10.158
10.3829
10.6931
10.4853
10.7325
10.4685
10.4703
10.4634
10.4651
10.4582
10.4721
10.46
10.4531
10.4513
10.4461
10.4443
10.4392
10.7947
10.6452
10.6921
10.6851
10.6868
10.2411
10.6348
10.6365
10.5796
10.5399
10.6125
10.6195
10.6266
10.6038
10.3392
10.5606
10.5675
10.5693
10.5537
10.5744
10.5762
10.4624
10.4762
10.4692
10.471
10.464
10.4658
10.4588
10.4607
10.457
10.4518
10.45
10.4677
10.4625
10.6744
10.4831
10.4777
10.4755
10.4702
10.4723
10.4648
10.467
10.6757
10.6037
10.3334
10.3317
10.3386
10.4423
10.6055
10.652
10.4624
10.585
10.7683
10.7627
10.6574
10.2012
10.2029
10.1962
10.1979
10.1911
10.1928
10.1995
10.1945
10.2012
10.1861
10.1962
10.2029
10.1978
10.2046
10.2096
10.2113
10.2062
10.213
10.218
10.2197
10.2146
10.2214
10.2265
10.2281
10.223
10.2298
10.2349
10.2365
10.2314
10.2382
10.1911
10.2331
10.2398
10.2449
10.2466
10.2415
10.2517
10.6706
10.6178
10.6247
10.205
10.4709
10.602
10.6089
10.6072
10.6141
10.6123
10.6192
10.621
10.6007
10.7185
10.1557
10.4089
10.9091
10.682
10.8327
10.8397
10.2495
10.7321
10.5637
10.6227
10.4622
10.2231
10.768
10.4971
10.5355
10.3058
10.4202
10.2246
10.4695
10.4073
10.2688
10.4227
10.6519
10.7399
10.2556
10.6142
10.3087
10.5955
10.4789
10.4831
10.1117
10.7636
10.2785
10.5955
10.5475
10.6917
10.2774
10.3505
10.4155
10.5264
10.4816
10.6994
10.2907
10.3831
10.7755
10.3967
10.3917
10.3894
10.3844
10.3822
10.3772
10.3749
10.3699
10.3722
10.3649
10.3672
10.36
10.3799
10.3622
10.355
10.3676
10.3528
10.3479
10.4815
10.7304
10.7838
10.4939
10.5051
10.3249
10.7864
10.4305
10.9472
10.1557
10.2299
10.0883
10.0817
10.0834
10.0768
10.0785
10.075
10.0701
10.0684
10.0635
10.0618
10.0569
10.0551
10.06
10.0652
10.5993
10.5597
10.5112
10.8223
10.8374
10.5325
10.6952
10.1499
10.4945
10.7691
10.5464
10.1806
10.7896
10.7879
10.2974
10.3103
10.4733
10.479
10.4707
10.4764
10.4849
10.4823
10.4908
10.4883
10.497
10.4945
10.5034
10.501
10.5056
10.5121
10.5141
10.5206
10.5225