/*--------------------------------*- C++ -*----------------------------------*\
  =========                 |
  \\      /  F ield         | OpenFOAM: The Open Source CFD Toolbox
   \\    /   O peration     | Website:  https://openfoam.org
    \\  /    A nd           | Version:  6
     \\/     M anipulation  |
\*---------------------------------------------------------------------------*/
FoamFile
{
    version     2.0;
    format      ascii;
    class       volScalarField;
    location    "1728000";
    object      Cw;
}
// * * * * * * * * * * * * * * * * * * * * * * * * * * * * * * * * * * * * * //

dimensions      [1 -3 0 0 0 0 0];

internalField   nonuniform List<scalar> 
11831
(
0
0
0
0
0
0
0
0
0
0
0
0
0
0
0
0
0
0
0
0
0
0
0
0
0
0
0
0
0
0
0
0
0
0
0
0
0
0
0
0
0
0
0
0
0
0
0
0
0
0
0
0
0
0
0
0
0
0
0
0
0
0
0
0
0
0
0
0
0
0
0
0
0
0
0
0
0
0
0
0
0
0
0
0
0
0
0
0
0
0
0
0
0
0
0
0
0
0
0
0
0
0
0
0
0
0
0
0
0
0
0
0
0
0
0
0
0
0
0
0
0
0
0
0
0
0
0
0
0
0
0
0
0
0
0
0
0
0
0
0
0
0
0
0
0
0
0
0
0
0
0
0
0
0
0
0
0
0
0
0
0
0
0
0
0
0
0
0
0
0
0
0
0
0
0
0
0
0
0
0
0
0
0
0
0
0
0
0
0
0
0
0
0
0
0
0
0
0
0
0
0
0
0
0
0
0
0
0
0
0
0
0
0
0
0
0
0
0
0
0
0
0
0
0
0
0
0
0
0
0
0
0
0
0
0
0
0
0
0
0
0
0
0
0
0
0
0
0
0
0
0
0
0
0
0
0
0
0
0
0
0
0
0
0
0
0
0
0
0
0
0
0
0
0
0
0
0
0
0
0
0
0
0
0
0
0
0
0
0
0
0
0
0
0
0
0
0
0
0
0
0
0
0
0
0
0
0
0
0
0
0
0
0
0
0
0
0
0
0
0
0
0
0
0
0
0
0
0
0
0
0
0
0
0
0
0
0
0
0
0
0
0
0
0
0
0
0
0
0
0
0
0
0
0
0
0
0
0
0
0
0
0
0
0
0
0
0
0
0
0
0
0
0
0
0
0
0
0
0
0
0
0
0
0
0
0
0
0
0
0
0
0
0
0
0
0
0
0
0
0
7.48846e-91
-2.17897e-42
-3.06712e-37
-2.71294e-90
-1.3037e-53
-2.83918e-92
-1.15214e-26
-1.41494e-88
2.73035e-90
-9.3673e-93
-7.20198e-31
2.5698e-47
1.05985e-20
-2.75984e-88
-4.38303e-63
5.91854e-94
-1.99269e-57
7.25891e-96
-3.71507e-22
-1.53208e-91
-1.49627e-88
-5.22327e-97
1.26857e-15
5.61219e-72
1.32123e-93
8.79667e-98
-7.24104e-15
5.75268e-66
1.52477e-99
7.20279e-81
-2.10617e-89
6.20157e-12
6.55003e-101
1.12927e-74
-2.66639e-95
-1.99647e-10
3.07267e-102
-1.71879e-88
4.66196e-90
3.56913e-11
1.15074e-103
-1.16596e-79
-1.68282e-97
-1.18521e-07
1.57238e-105
4.54497e-95
5.66909e-91
-9.47314e-08
-1.26172e-90
-1.81217e-36
1.13176e-91
6.58966e-42
4.27196e-106
-1.01954e-84
4.26649e-48
1.72272e-91
2.12828e-31
4.58232e-89
-2.9658e-52
-2.01569e-93
-2.02424e-92
3.06827e-99
5.17266e-58
-7.29463e-26
-1.99954e-06
-1.78263e-92
2.45744e-24
8.33209e-89
6.16672e-109
-1.08107e-89
1.44729e-102
4.51709e-06
1.3804e-108
1.04964e-99
1.31064e-92
-2.22135e-07
1.4457e-96
1.91517e-62
3.6587e-99
2.92375e-70
5.58739e-76
1.46517e-98
-3.9347e-67
3.43287e-95
2.93195e-88
-2.97526e-18
2.86693e-95
5.32534e-92
1.92159e-17
1.15727e-12
4.73968e-90
-1.11952e-13
-3.08727e-93
4.9897e-111
4.86764e-07
-5.48638e-104
6.69501e-111
-2.64051e-93
8.76842e-104
1.05936e-07
-4.1526e-90
1.70149e-103
1.34229e-102
-6.6737e-78
4.86666e-107
-4.55065e-97
4.49975e-101
1.47462e-85
6.27882e-105
-2.81486e-82
2.18047e-107
-2.7916e-87
-1.83339e-90
-1.09937e-38
4.84122e-34
5.79571e-91
-1.49151e-54
-3.79204e-94
1.73239e-90
1.65298e-35
2.57507e-91
4.13749e-44
-2.47651e-93
-1.82195e-61
-1.31327e-90
-1.49119e-39
2.05885e-43
1.80208e-91
2.63984e-60
8.58835e-96
-9.68122e-97
-3.01177e-90
7.30502e-70
-4.24499e-09
-3.88161e-25
-1.55058e-88
-2.40407e-51
3.96399e-93
8.2999e-22
3.70186e-88
-8.56054e-90
2.31129e-12
1.42004e-17
-8.55673e-98
-3.57957e-92
8.29794e-100
-9.93595e-96
7.27734e-91
-1.15065e-90
-1.00182e-08
9.43961e-09
5.85114e-56
4.92221e-07
-4.96007e-93
-1.12637e-50
-1.27975e-27
-2.05039e-88
1.38317e-92
9.56703e-24
-1.21084e-19
-6.10697e-91
-5.18354e-30
4.77117e-89
3.03549e-07
-1.12638e-95
1.39112e-112
1.02729e-08
-1.63834e-105
8.39481e-91
1.02537e-89
6.57979e-90
7.8596e-89
4.18072e-89
4.96404e-88
3.23883e-88
3.74582e-87
4.65726e-87
5.44021e-86
7.21246e-86
8.93383e-85
4.66981e-85
6.35732e-84
1.11664e-83
8.56804e-83
2.66063e-83
4.24028e-82
-8.47401e-83
-8.7908e-82
-3.23323e-81
-3.90026e-80
-5.37071e-80
-6.55389e-79
-7.33169e-79
-8.96534e-78
-7.64122e-78
-9.38792e-77
-4.38377e-77
-5.21533e-76
-1.14268e-75
-6.17617e-75
-1.38878e-74
-7.1494e-74
-1.67883e-73
-8.19377e-73
-2.02192e-72
-9.566e-72
-2.42071e-71
-1.11591e-70
-2.86509e-70
-1.29757e-69
-3.35918e-69
-1.5027e-68
-3.88155e-68
-1.7229e-67
-4.41878e-67
-1.96691e-66
-4.94591e-66
-2.23714e-65
-6.05586e-67
-1.48773e-66
-2.54338e-64
6.50071e-65
-2.84844e-63
1.79986e-63
7.35192e-63
8.80228e-62
3.46177e-62
1.04725e-60
6.95983e-61
7.99077e-60
1.23411e-59
9.05975e-59
3.10235e-59
3.5403e-58
-1.39547e-59
-3.45743e-58
3.95399e-57
-6.4241e-57
4.00893e-56
-1.02418e-55
-1.11982e-55
-1.3486e-54
-1.45809e-54
-1.58041e-53
-7.92377e-54
-8.83717e-53
-1.83465e-52
-9.44004e-52
-2.54243e-52
-2.63893e-51
-9.9509e-51
-2.61868e-50
5.53295e-51
8.25814e-50
8.02216e-50
9.43592e-49
1.13206e-48
1.08718e-47
5.24251e-48
5.81261e-47
1.24182e-46
6.38745e-46
1.40333e-45
6.95447e-45
2.58856e-45
2.74791e-44
7.50529e-44
2.88612e-43
9.30129e-44
9.59292e-43
3.00253e-42
9.77688e-42
2.77397e-42
2.7595e-41
7.00812e-42
9.87421e-41
2.71211e-40
9.85564e-40
2.63696e-39
9.7392e-39
2.53446e-38
9.50965e-38
2.40792e-37
9.18331e-37
2.25984e-36
8.75821e-36
-5.28795e-74
2.09448e-35
8.25181e-35
1.91578e-34
4.38094e-35
7.67258e-34
2.95625e-34
2.79605e-33
9.52368e-34
9.16379e-33
3.88759e-34
8.07365e-35
2.71792e-33
6.94034e-34
1.31477e-34
2.666e-32
6.67558e-33
1.09148e-33
1.88999e-34
6.70186e-32
1.32505e-32
1.5106e-33
2.3935e-34
1.37751e-31
1.83392e-33
2.65605e-34
1.6954e-32
1.93163e-31
1.94529e-33
2.59427e-34
-5.6081e-33
-5.14332e-35
1.81143e-33
2.2129e-34
-1.16381e-31
1.46308e-33
1.63063e-34
-1.08689e-30
-3.27354e-31
1.01007e-33
1.01506e-34
-3.18006e-30
5.77994e-34
5.07528e-35
-5.00892e-31
-5.25047e-30
2.53138e-34
1.71932e-35
3.95266e-36
7.5011e-37
2.50991e-37
-3.3526e-38
8.47982e-39
-1.47967e-38
-8.8659e-40
-2.12367e-39
-2.76135e-40
-2.1545e-40
-3.44134e-41
-1.79541e-41
-3.26011e-42
-1.30512e-42
-2.63913e-43
-8.30451e-44
-1.8884e-44
-4.27358e-45
-1.18135e-45
-1.11702e-46
-5.92732e-47
1.23127e-47
-1.33671e-48
3.14916e-48
-3.31844e-31
2.06976e-49
-4.36952e-30
-5.41383e-29
-1.19209e-39
2.1696e-47
1.72423e-48
-5.18521e-29
-5.52454e-28
1.07189e-30
7.8586e-48
4.1373e-49
-5.74556e-28
-5.5117e-27
-6.19622e-27
-5.36074e-26
1.03082e-48
-7.30136e-51
-6.56102e-26
-5.09127e-25
-4.71516e-49
-6.47458e-50
-6.7679e-25
-4.67132e-24
-6.81222e-24
-4.0886e-23
-3.89637e-49
-2.69377e-50
-2.42546e-25
-6.70171e-23
-3.49266e-22
-6.43645e-22
-2.93181e-21
-1.01768e-49
-4.28127e-51
-1.54241e-51
-3.21375e-53
-6.71313e-53
2.29027e-53
-6.03059e-21
-2.48154e-20
1.57112e-51
-7.88594e-55
-5.48359e-20
-2.04546e-19
4.26977e-54
-4.78945e-19
-1.6254e-18
2.82751e-55
-3.96654e-18
-1.22344e-17
3.23868e-55
-5.51754e-19
-3.14774e-17
-7.92923e-17
5.77265e-35
5.51891e-56
-2.44659e-16
-3.89167e-16
2.5461e-16
2.63056e-15
2.58301e-15
2.16858e-14
1.19473e-14
9.20322e-14
3.84066e-14
2.77137e-13
9.32766e-14
6.86902e-13
1.93221e-12
4.95556e-12
1.31991e-31
2.90437e-31
3.13037e-32
3.54531e-32
3.28112e-33
1.41595e-34
-2.45911e-35
-8.0785e-34
-8.08179e-35
-1.21486e-34
-1.14394e-35
-2.16189e-36
-1.4585e-37
1.72792e-36
1.55287e-37
2.28142e-37
2.06503e-38
9.30169e-39
9.29361e-40
-7.09996e-42
3.7276e-42
9.27511e-38
-5.27508e-41
-5.21764e-42
-8.96242e-42
-9.22035e-43
-2.03787e-43
-2.20496e-44
1.29809e-11
3.44728e-11
2.17368e-56
2.83298e-44
2.80999e-45
3.63635e-45
3.63283e-46
2.84737e-43
4.62719e-57
8.37696e-11
2.30577e-10
-7.96975e-49
-2.85038e-46
-2.73874e-47
1.2721e-57
3.80679e-57
1.40287e-58
-7.04099e-59
5.17393e-10
1.47821e-09
-5.21313e-47
-5.17074e-48
3.26626e-58
-5.33044e-67
-4.70919e-59
-5.50756e-58
-1.33311e-48
-1.37552e-49
3.04559e-09
8.54591e-10
9.05e-09
1.27289e-49
1.22979e-50
-3.6719e-59
-1.09966e-58
1.27134e-48
-4.61437e-60
-5.99545e-60
1.68392e-50
1.79765e-51
1.25307e-51
1.86154e-52
-1.25284e-53
1.5736e-54
2.01872e-53
3.72108e-55
-5.02289e-55
-2.7553e-56
5.69086e-56
-1.2179e-57
-3.56372e-57
-2.50268e-58
1.02185e-59
-3.99747e-59
-2.51134e-59
-2.21948e-60
-2.37591e-60
-2.11295e-61
-9.97541e-62
1.70042e-08
5.267e-08
-1.37074e-61
-1.60898e-62
-4.51062e-64
3.06853e-61
6.08036e-60
8.95053e-08
2.89855e-07
1.32666e-07
7.6242e-07
2.61333e-07
1.57302e-06
4.63164e-61
1.57698e-60
-1.42384e-61
3.71334e-07
-4.625e-64
5.93481e-65
2.37912e-06
7.35533e-62
7.97984e-62
1.49943e-06
3.03559e-07
-2.55701e-63
-6.19534e-62
-3.49268e-61
-2.90769e-61
-4.46425e-60
-1.41694e-62
-7.62095e-66
1.68058e-65
2.7723e-46
-6.31859e-61
-1.41364e-59
2.23689e-06
1.12837e-33
5.41625e-35
-1.43496e-50
-2.23999e-49
-1.04286e-50
-5.08005e-50
-2.97358e-51
-1.0237e-50
-6.75854e-52
-1.87358e-51
-1.35189e-52
-3.23626e-52
-2.48347e-53
-5.22087e-53
-4.31613e-54
-6.72338e-54
-6.72108e-55
-7.30363e-55
-9.04942e-56
-4.14904e-56
-1.1214e-56
2.41659e-57
-7.51621e-58
1.52635e-57
3.53833e-60
3.79295e-58
1.57223e-59
7.47899e-59
4.31223e-60
1.31934e-59
8.79607e-61
2.17997e-60
1.56537e-61
1.58157e-61
3.41378e-61
2.62423e-62
5.08797e-62
4.0863e-63
7.37025e-63
6.12971e-64
1.0365e-63
8.86123e-65
1.42381e-64
1.24681e-65
1.93036e-65
2.10403e-64
2.70463e-65
2.77071e-64
3.41688e-65
3.41329e-66
4.2007e-66
4.00671e-65
4.71579e-66
5.04143e-67
5.55949e-67
5.03077e-66
5.74318e-67
6.44769e-68
6.49744e-68
4.89461e-65
7.40566e-69
7.25358e-69
6.07777e-68
6.46726e-69
7.88377e-70
6.98684e-70
5.67189e-69
5.95539e-70
4.72619e-69
4.83334e-70
6.28006e-71
4.97181e-71
3.59216e-70
3.57156e-71
5.04207e-72
3.55937e-72
5.09578e-73
3.51186e-73
5.10308e-74
3.4467e-74
2.48435e-70
5.06561e-75
3.32846e-75
4.96907e-76
3.1922e-76
2.07194e-75
1.89503e-76
3.00362e-77
1.78398e-77
1.11844e-76
2.84563e-78
1.6571e-78
2.77865e-59
2.67736e-79
1.53136e-79
1.00165e-66
1.06847e-66
7.24998e-66
2.49896e-80
-1.14319e-07
3.89287e-67
4.09751e-33
-1.42658e-33
-4.66122e-61
-2.2472e-59
4.69076e-08
8.03871e-67
7.71902e-33
-1.93835e-32
1.39362e-80
2.31053e-81
7.86527e-68
5.38315e-69
1.38579e-82
7.11272e-76
-9.06227e-07
-5.18744e-32
-1.46669e-31
3.80515e-60
1.76932e-59
2.00541e-69
-1.03138e-70
-8.69686e-31
-9.14281e-31
1.26487e-81
2.1212e-82
3.67838e-82
-4.33005e-06
5.08606e-06
9.07629e-41
-7.90122e-30
-4.38581e-30
-4.7918e-29
-1.87649e-29
-1.2564e-30
-3.64669e-30
-4.76352e-32
1.05394e-30
-3.82525e-30
1.2235e-29
1.31167e-30
5.32917e-30
3.22133e-31
6.39568e-31
-1.43756e-32
-3.77583e-31
-9.63353e-31
-4.93133e-32
-2.20696e-31
-1.39892e-32
-3.018e-32
2.82455e-35
1.11424e-32
2.00922e-33
8.22619e-33
4.72999e-34
7.33645e-34
2.08978e-32
1.79981e-36
-9.14078e-34
2.55593e-32
3.43467e-59
5.21592e-58
-1.16373e-06
3.34381e-83
-1.62329e-05
5.04189e-05
1.37258e-55
1.9333e-83
1.57427e-71
2.78129e-72
-4.40513e-05
0.000352836
3.08861e-84
5.55169e-83
-1.55374e-32
-6.74349e-32
8.23012e-59
2.84012e-60
1.97188e-57
-8.45388e-05
0.00210331
1.73457e-84
2.83153e-85
7.46654e-81
-8.39737e-22
-5.06285e-52
-1.67983e-70
-8.71778e-57
-2.35023e-66
-2.81532e-73
4.1686e-72
3.95873e-71
2.79297e-72
-1.54566e-30
2.12134e-71
0.000228248
0.0109699
-6.65048e-32
-7.63249e-31
-3.75895e-60
-7.09085e-61
-1.06652e-36
1.52862e-85
2.55965e-86
3.7947e-73
9.73649e-74
-0.000571352
0.00371816
0.0501612
-1.98307e-41
6.63998e-31
-1.42202e-31
-2.71865e-30
-4.52599e-33
-3.84791e-60
-1.70531e-61
0.0240561
0.200424
0.193298
0.630987
0.38527
0.692351
1.34853e-86
2.29409e-87
3.9878e-87
1.44317e-74
4.53573e-75
3.55648e-88
1.78386e-35
-3.55464e-36
1.75618
2.03027
-1.54757e-61
1.10903e-63
-1.15755e-31
-4.78308e-30
1.42528e-33
-2.82703e-71
2.04225e-88
5.99039e-88
3.23361e-89
6.17526e-76
5.95711e-77
-1.8114e-48
-1.99776e-07
-6.94642e-08
-5.04367e-09
2.69198e-08
5.49994e-09
4.5114e-09
8.05466e-10
-1.30181e-11
-1.22592e-11
-8.06562e-11
-1.22413e-11
-7.32802e-12
-9.23281e-13
4.51022e-13
1.09977e-13
-4.98882e-11
4.11366
4.94039
7.99222e-62
5.33465e-63
5.01811e-61
5.43325e-31
-1.80892e-30
-1.02128e-28
-1.38659e-28
-1.32263e-27
-3.14617e-27
-7.11257e-27
-4.66571e-26
-1.84297e-26
-4.11429e-25
1.02774e-24
-1.42734e-24
2.75118e-23
2.69614e-23
4.31305e-22
8.35294e-22
4.14412e-21
1.36875e-20
1.62565e-20
1.32923e-19
-4.10921e-21
-1.07267e-19
5.27213e-19
-1.26257e-33
3.54539e-35
1.37196e-32
6.95304e-14
1.2994e-14
2.35882e-37
-6.70772e-37
3.29622e-57
3.31664e-56
5.80232e-57
4.37563e-55
-7.91646e-55
2.58902e-54
-2.75022e-53
-1.37002e-53
-4.12489e-78
1.79273e-89
2.91478e-90
5.28177e-79
7.98269e-77
-9.23739e-79
9.8255e-79
-1.02291e-78
-1.59011e-77
-2.86103e-16
-1.48487e-16
-4.15855e-18
-2.5645e-18
-6.37249e-38
-3.62883e-27
2.78777e-61
4.70333e-60
3.96104e-19
8.01484
9.75093
4.17597
-5.28059e-79
-6.15447e-16
-8.84159e-17
8.84087
-1.81831e-79
-6.74296e-17
-1.08986e-16
1.54763e-90
2.587e-91
-5.94549e-33
-4.21159e-78
1.82576
-4.30647e-15
-4.23352e-17
-4.40797e-18
-1.30877e-17
-3.85706e-19
-1.93065e-18
-2.92659e-20
1.45225e-19
1.78798e-20
-1.78751e-21
2.17046e-21
-4.26069e-23
2.64308e-22
1.24046e-23
3.23475e-23
2.83628e-24
3.96249e-24
2.69167e-24
2.67848e-25
4.80306e-25
2.92686e-26
-4.90083e-26
-5.17999e-27
4.37489e-27
-5.38683e-28
-6.18342e-28
-7.51319e-29
-5.36308e-30
-8.31664e-31
6.06436e-28
8.73863e-31
1.20137e-31
8.37901e-32
1.15035e-32
1.5539e-32
1.48951e-33
-1.12817e-33
-1.94599e-34
1.91988e-33
1.47966e-20
-9.45464e-35
-1.61378e-35
5.88946e-31
15.5795
14.5984
3.04119e-61
8.84276e-60
-6.47276e-16
-1.74281e-15
-1.03084e-16
-5.89967e-80
1.33528e-91
7.68967e-91
2.27453e-92
3.98547e-92
3.46095e-93
-2.13614e-37
-7.00458e-38
-5.18525e-38
-1.25202e-38
20.0992
19.0083
-2.66475e-61
5.42558e-60
7.03574e-79
5.9374e-93
9.8329e-38
1.49184e-38
-1.67155e-38
2.16749e-39
-2.97428e-39
3.20645e-40
1.90113e-40
2.87356e-41
-4.37519e-40
1.33392e-14
2.68294e-14
3.95864e-15
6.69988e-15
1.02097e-15
1.46874e-15
2.31498e-16
2.84722e-16
4.65143e-17
4.97125e-17
8.38235e-18
7.8346e-18
7.81243e-86
7.07217e-58
6.54322e-59
-1.98436e-25
-2.58269e-15
-1.58123e-14
-2.64243e-15
-4.05142e-14
-9.79935e-16
-5.52869e-14
-3.45684e-13
-8.17895e-13
-1.09215e-14
-9.74243e-13
-6.5497e-12
-1.39889e-11
-2.22506e-11
-1.0454e-10
8.05006e-72
2.8233e-16
4.34361e-11
-3.3126e-10
9.74751e-43
1.42036e-43
3.92358e-59
6.7215e-60
1.13249e-92
-1.81788e-43
-2.86718e-44
6.07109e-37
7.39347e-80
5.17032e-94
-6.27879e-60
3.05962e-61
1.36999e-18
1.11394e-18
-2.73504e-39
-9.9792e-40
2.1664e-09
8.807e-10
-1.48843e-11
21.4588
20.5538
5.7652e-64
3.20468e-64
9.13138e-65
1.3327e-65
6.08661e-66
4.60432e-67
3.63577e-67
7.50834e-69
1.51672e-68
-8.01733e-70
5.39548e-70
-1.06073e-70
8.6217e-72
-1.5673e-71
-1.00984e-72
-8.92956e-73
-1.11987e-68
-1.17785e-73
5.52169e-73
1.3779e-74
3.9687e-73
-5.00767e-74
-5.35774e-74
2.25138e-74
5.25763e-74
-8.28452e-76
9.16295e-75
7.64953e-75
-1.3631e-74
1.28293e-75
3.11064e-75
8.15484e-77
-1.83497e-74
1.32678e-76
-9.36053e-40
-1.94362e-40
2.4947e-40
4.41746e-77
-3.80971e-60
-4.29229e-59
3.75889e-79
-3.21068e-60
-1.05001e-61
8.17491e-62
2.50579e-63
1.0752e-62
1.01993e-63
9.1233e-64
1.38179e-64
5.82822e-65
1.20027e-65
3.31103e-66
7.94997e-67
1.69825e-67
4.67131e-68
1.59836e-67
7.61715e-69
1.07617e-68
2.49427e-68
2.15436e-69
2.01013e-69
3.81091e-70
2.13419e-71
2.72543e-71
-4.94435e-71
2.15947e-73
-1.74214e-71
2.87095e-71
-6.65442e-73
-4.27823e-72
-2.19411e-73
-8.95097e-73
-5.30572e-74
-1.54407e-73
-3.42286e-70
-1.0586e-74
-2.02647e-74
-1.43136e-73
1.9609e-75
-1.5607e-75
4.55226e-75
-8.84566e-75
-4.49603e-62
1.20771e-73
2.75572e-74
1.38334e-75
5.29075e-75
3.06838e-76
9.11818e-76
6.05108e-77
1.32821e-76
-9.02806e-42
1.83733e-40
4.58209e-73
8.29526e-94
9.5695e-78
7.61099e-78
4.1678e-78
-1.41508e-77
-4.38138e-78
-4.39595e-80
-4.07351e-78
-7.74726e-77
-1.47462e-77
-1.33567e-44
-2.15731e-45
-4.15004e-45
-3.32888e-46
-5.93397e-46
-5.01662e-47
4.1485e-49
-1.52038e-49
3.0284e-49
4.35961e-50
-3.41413e-50
6.41192e-51
2.97217e-51
4.62837e-52
9.04473e-52
7.10306e-53
-9.89759e-54
-1.25291e-54
1.05865e-53
-3.47907e-56
-8.7602e-56
-7.98735e-57
9.03241e-57
-1.22966e-57
-6.5987e-58
-9.2602e-59
-6.87055e-76
-8.32023e-75
-8.56405e-79
-2.61109e-78
-3.96786e-77
-6.32431e-78
-8.79285e-77
-1.2865e-77
-9.64959e-79
-1.93517e-78
-2.16341e-77
-1.57895e-78
-2.18285e-79
-7.22873e-80
9.64185e-79
3.27491e-79
7.95943e-81
6.5219e-80
3.09086e-81
1.10784e-80
1.64379e-79
2.39419e-80
1.70454e-81
3.40506e-81
4.37807e-80
5.85334e-81
7.16722e-80
9.26839e-81
7.72653e-82
1.17342e-81
1.00224e-82
1.45334e-82
1.02196e-77
7.26759e-77
-3.64718e-39
1.93554e-41
1.5383e-39
1.34631e-40
3.76719e-40
1.45171e-41
-1.06494e-41
-2.32877e-42
-1.78719e-41
-9.39215e-43
-9.69263e-43
2.75501e-44
5.35687e-43
3.92998e-44
6.43114e-44
1.56856e-42
-2.05085e-44
1.54223e-42
-6.94603e-45
-6.24111e-43
-3.45338e-42
3.03248e-57
-1.21744e-21
-9.98905e-14
3.57009e-78
-4.16507e-76
-9.03592e-76
7.28617e-95
1.13968e-78
6.11686e-77
4.28695e-77
18.3284
13.6518
18.491
12.4123
11.3647
-7.03965e-77
-5.44483e-76
-7.75325e-78
-1.90808e-42
-3.12024e-41
-7.71958e-60
-1.86753e-58
-2.44468e-61
-3.91389e-81
4.60022e-82
-8.15134e-44
1.0456e-60
-1.15611e-60
1.27198e-83
1.74558e-83
2.57069e-08
3.25661e-08
1.07955e-79
1.67136e-09
2.02861e-19
2.2915e-19
1.43009e-19
1.17669e-68
-3.33793e-70
-9.97722e-69
-1.5061e-69
-6.35073e-69
-3.23448e-70
-8.63496e-70
-2.64097e-71
-1.55351e-71
-4.04803e-74
-6.08049e-73
9.60726e-74
-1.58326e-74
1.72189e-74
5.74039e-76
1.32802e-75
-1.28652e-76
-1.89059e-15
-8.36209e-82
-1.49607e-82
8.57858e-71
3.52186e-20
3.68964e-20
6.20794e-42
6.89921e-41
1.56597e-84
2.06612e-84
2.20364e-83
2.47659e-84
1.15184e-94
3.69565e-61
6.09986e-62
2.35845e-85
2.85206e-85
2.98162e-84
3.29721e-85
3.206e-86
3.65504e-86
4.87855
1.11619e-76
5.33794e-78
3.59122e-76
-9.83122e-75
4.61935
7.99207e-25
-6.47571e-23
4.52951e-30
3.25944e-38
6.16037e-39
3.01713e-34
-1.33101e-53
4.79148e-29
-3.85915e-61
-1.39387e-49
-4.13583e-09
1.57487e-08
-1.64238e-08
-4.24328e-08
-9.7795e-81
8.42746e-79
7.07047e-19
4.68696e-95
6.67174e-96
4.16124e-96
-2.56586e-82
-2.29906e-77
-1.60561e-78
1.0721e-78
7.68099e-80
3.07154e-78
2.5321e-79
2.02901e-78
1.63171e-79
8.66114e-79
6.95828e-80
2.0884e-79
2.42321e-78
-1.14712e-79
-2.50538e-78
-5.14816e-78
-6.81128e-77
-3.79392e-79
-2.48501e-78
-1.86712e-79
-8.10369e-79
-6.48686e-80
-1.74996e-79
-1.48305e-80
3.66495e-80
5.66764e-79
2.22532e-81
5.01841e-79
6.41475e-78
-5.40127e-81
3.36649e-78
4.26145e-77
1.69105e-77
2.09511e-76
2.00732e-80
1.34138e-78
-4.18298e-16
-3.03192e-43
-5.47993e-22
5.85895e-21
5.73256e-21
9.36796e-22
8.61807e-22
1.44839e-22
1.25285e-22
1.19452e-78
8.0312
3.2634
-2.87721e-08
-1.60763e-07
-4.33635e-78
-2.47338e-79
1.81415e-61
-1.8803e-58
-3.04637e-57
-6.04089e-57
-1.5289e-42
-4.9563e-41
2.67097e-44
-3.83364e-79
-7.87033e-83
-8.64682e-84
4.8949
7.88716
3.3486e-77
7.86957e-77
2.50412e-62
1.08163e-84
6.07235e-97
3.67899e-97
1.61326e-07
5.2744e-78
4.17066e-79
2.16818e-23
2.38393e-07
-3.77519e-07
-1.91044e-52
-1.23908e-53
4.25483e-60
3.61395e-87
3.99967e-87
7.67044e-20
3.26252e-19
-1.77096e-54
3.36367e-84
-4.14366e-56
-1.51815e-55
3.92414e-63
1.76661e-23
-3.5314e-15
-2.79353e-16
0.991748
-0.249314
5.98638e-59
4.02005e-88
4.3476e-88
5.47721e-98
3.18266e-98
-1.81553e-84
-3.74916e-85
2.70898e-20
8.04783e-20
-2.69322e-33
3.52079e-42
1.92985e-41
9.54031e-78
3.52956
-8.46304e-81
1.75924e-77
-3.48273e-78
1.17618
-4.52578e-64
-2.18447e-08
6.06606e-43
4.45293e-44
5.67293e-80
4.35534
-2.09104e-42
8.19783e-22
-2.87574e-20
-8.92391e-21
-2.12246e-57
1.27121e-77
4.41881e-89
4.70741e-89
-2.13776e-80
4.77485e-06
2.1867e-06
1.62701e-78
1.2785e-79
-5.28598e-73
3.14818e-24
-4.84561e-20
-3.07576e-19
-5.26368e-21
9.15804e-10
4.56395e-88
4.73917e-89
4.15964e-78
1.05505e-77
3.5845e-88
1.12216e-78
-7.87193e-78
1.97059
3.651e-81
8.63626e-98
-4.89612e-87
-2.80319e-87
-7.54108e-86
-9.47986e-88
-1.31998e-86
-8.25741e-84
9.10083e-74
5.97634e-66
-2.49064e-65
2.42284e-24
3.17206e-31
3.18917e-31
-6.50371e-59
-2.70398e-88
-1.83997e-87
-1.6236e-90
4.96833e-90
4.95156e-90
4.8701e-99
2.73859e-99
1.68488e-98
1.9795e-52
2.1563e-52
-3.67848e-43
-2.31984e-55
-2.55164e-54
-1.35499e-55
-4.53466e-54
-4.9351e-44
5.35664e-76
2.56431e-75
6.7176e-75
3.12531e-74
8.31723e-74
3.77947e-73
1.02655e-72
4.54891e-72
1.25439e-71
5.45026e-71
1.52706e-70
6.48278e-70
1.83969e-69
7.67873e-69
2.20608e-68
9.03437e-68
2.62341e-67
1.05798e-66
3.10259e-66
1.23295e-65
3.63778e-65
1.42897e-64
4.4532e-65
5.11796e-64
1.64788e-63
5.82541e-63
1.65006e-63
1.85558e-62
6.59448e-62
2.06459e-61
5.06372e-62
5.48825e-61
2.28073e-60
5.87245e-60
1.32281e-60
1.41075e-59
3.03055e-60
3.19951e-59
1.48872e-58
3.32956e-58
6.7054e-59
6.909e-58
3.4382e-57
7.01916e-57
1.30802e-57
1.30345e-56
7.07132e-56
1.28095e-55
7.02411e-55
1.24729e-54
2.12605e-55
2.02873e-54
1.20306e-53
1.90854e-53
1.14902e-52
1.77489e-52
3.22138e-55
8.25591e-66
2.01656e-70
1.08265e-51
1.63165e-51
3.67306e-70
2.50478e-52
2.25427e-51
1.48181e-50
1.9965e-50
2.84946e-51
2.46342e-50
1.74735e-49
2.09037e-49
1.51045e-48
1.7449e-48
1.28237e-47
1.43317e-47
1.07345e-46
1.15789e-46
8.83612e-46
9.19658e-46
1.18285e-73
7.13393e-45
6.56764e-52
7.18646e-45
1.4423e-47
3.2719e-51
1.03929e-47
5.66418e-44
5.51169e-44
6.50761e-45
2.39802e-08
-0.263453
-0.176909
1.53897e-80
1.9779
5.25242e-44
8.92746e-46
5.26203e-91
3.30458e-55
4.28693e-100
0.904489
7.13819e-82
-2.19445e-79
-3.00141e-78
2.68439e-79
-2.76687e-64
1.2174e-42
3.60652e-42
1.82325e-41
-1.62198e-42
-8.05228e-41
1.04424e-76
-1.55206e-78
1.54141e-21
1.20916e-23
2.44167e-63
1.40702e-22
-2.22933e-19
-1.86578e-18
1.89684e-41
-2.74877e-15
2.94417e-16
4.52518e-88
1.25728e-93
1.6828e-94
2.93772e-75
8.97803e-74
-2.05156e-66
7.68349e-66
-9.95127e-67
3.47758e-05
3.41147e-05
-2.5123e-06
1.33811e-05
-6.26818e-06
-1.22252e-05
4.71533e-79
3.75063e-80
1.57642e-24
4.43391e-25
1.06794e-67
0.00263466
2.62223e-10
4.20679e-09
1.14608e-09
-1.3407e-52
1.04854e-80
3.08671e-81
8.59526e-82
2.54293e-82
6.97554e-83
2.08611e-83
5.64319e-84
1.70045e-84
4.51974e-85
1.38028e-85
3.6102e-86
1.11316e-86
2.88318e-87
8.94874e-88
8.74934e-87
2.28073e-88
7.16344e-89
2.53047e-88
1.98809e-89
7.30697e-83
1.79315e-89
6.98343e-89
5.48494e-90
8.50593e-62
4.66309e-21
1.56677e-45
1.06362e-44
9.92271e-46
6.54812e-45
5.25113e-47
3.79845e-31
5.9679e-38
7.08941e-32
5.86643e-33
5.85923e-87
5.46087e-08
4.45001e-79
-2.88052e-41
-4.39179e-40
4.79612e-44
5.2752e-45
4.14385e-43
1.3727e-99
8.66436e-99
4.70806e-51
1.48862e-51
8.65809e-51
1.29625e-76
1.50932e-77
1.49218e-54
-6.09995e-89
-2.09493e-88
0.686363
3.34226e-46
-1.66151e-79
-1.31338e-79
-8.66214e-79
-1.35065e-78
1.50077e-16
-2.26889e-53
-3.92513e-33
-1.12218e-31
1.20117e-15
9.41662e-16
1.19506e-16
0.000173762
-8.29424e-19
-8.91602e-18
1.52795e-76
1.74675e-77
1.81861e-54
8.69102e-10
1.88559e-11
-6.36369e-06
-2.26192e-05
0.752713
0.348329
-0.069808
-9.14038e-82
-1.08156e-80
-9.23431e-83
2.52106e-54
4.20459e-53
-9.12999e-45
-4.78901e-44
-7.91827e-80
-4.32927e-80
-1.53814e-79
8.38681e-31
4.22742e-14
6.63926e-31
6.11755e-66
1.40769e-69
-3.86691e-47
-2.68655e-81
-1.39853e-67
2.46177e-68
1.13963e-16
1.228e-17
6.97687e-24
8.68968e-25
-9.51416e-68
-8.25707e-41
-5.87731e-40
6.41277e-45
3.70769e-44
3.78857e-45
9.46495e-51
1.82445e-93
2.43386e-94
-1.50729e-89
-1.99581e-89
-1.80728e-88
-7.76722e-91
9.74822e-88
1.79183e-88
1.84292e-87
-2.27999e-88
-1.05422e-86
-2.67334e-87
-4.84188e-86
-7.50226e-87
-2.66587e-86
-1.78501e-87
1.06431e-85
1.4638e-86
5.16623e-85
4.7608e-86
1.69569e-84
1.28281e-85
3.78509e-84
2.50898e-85
3.90544e-84
4.71862e-83
5.24046e-83
6.84688e-84
2.6672e-82
3.49646e-83
9.54737e-82
8.1368e-81
1.82157e-80
1.38286e-81
1.0805e-80
1.28403e-79
-3.98585e-80
-8.64536e-81
-4.54315e-79
-5.2118e-80
-1.09799e-78
-1.03694e-77
-1.46037e-77
-1.33559e-78
-6.7124e-78
-8.4e-77
7.65089e-78
2.41839e-78
1.64128e-76
1.41793e-75
5.34097e-75
5.58812e-76
1.3141e-74
1.19689e-73
1.30802e-75
9.54201e-74
1.10047e-72
6.30076e-73
1.15194e-71
-8.88556e-72
-8.28038e-71
-2.31823e-70
-2.34265e-69
-2.12648e-71
-2.62142e-69
-2.81374e-68
-9.39748e-69
-1.1866e-67
7.5254e-68
8.9054e-67
5.82184e-67
8.64439e-66
2.84924e-68
1.04877e-65
9.20481e-65
-4.86254e-65
-6.64782e-64
-7.22231e-70
1.00109e-63
-7.53046e-63
-2.6833e-62
-2.89817e-61
-7.85498e-62
-2.90909e-60
-2.43374e-60
-2.00357e-59
-3.12813e-59
-1.85102e-58
1.32393e-58
1.42071e-57
-1.94127e-57
1.40572e-56
4.34546e-56
4.75226e-55
1.31614e-55
4.93277e-54
7.89472e-54
9.17527e-53
1.29407e-52
1.64673e-51
1.18364e-54
4.3301e-52
5.11718e-51
4.05707e-53
2.06498e-50
5.8232e-50
-2.91242e-50
-3.44508e-49
-5.25874e-49
-5.86206e-48
6.10061e-49
-3.92417e-48
-3.94352e-47
-1.4323e-47
-8.15619e-47
-4.10734e-46
-4.39028e-46
1.04459e-45
1.22283e-44
-1.81469e-45
1.41184e-43
1.31914e-43
1.43018e-42
6.00186e-43
6.29359e-42
-1.66271e-48
3.75627e-46
-1.89032e-44
-3.57843e-42
6.54598e-41
2.18601e-44
-1.57348e-41
-1.8124e-40
2.91667e-83
-1.88688e-79
2.9652e-43
-1.08216e-32
-1.88378e-32
-3.98345e-31
-1.7824e-33
-4.57668e-31
1.02188e-31
4.09171e-31
3.23052e-31
4.16934e-30
1.43614e-32
2.74724e-31
7.81952e-30
-4.66746e-31
2.46131e-30
1.32328e-28
1.41918e-28
1.03404e-27
3.11606e-27
3.54891e-27
3.74142e-26
-8.42003e-26
1.87174e-25
-2.41113e-24
-4.51219e-25
-3.86766e-23
-3.68296e-23
-2.73151e-22
-7.36782e-22
-8.1938e-22
-7.40515e-21
1.89985e-20
-3.06891e-20
1.08474e-75
4.20614e-74
7.77023e-73
1.78888e-89
1.41672e-90
4.42143e-91
1.14574e-91
2.18356e-88
3.54297e-92
9.26487e-93
2.82069e-92
2.14314e-93
1.33546e-79
1.60885e-78
3.31921e-53
2.51309e-52
-3.24844e-52
5.13624e-25
7.43728e-26
7.01138e-100
4.30209e-99
1.73207e-76
1.93614e-77
-0.00909928
-0.274067
9.95332e-53
8.41005e-76
4.19662e-44
1.99196e-45
2.69803e-43
-4.60287e-77
-2.51796e-14
4.25103e-40
8.95263e-75
6.61827e-75
-8.51659e-53
3.17366e-52
-7.02068e-81
-4.13789e-81
-5.1737e-81
1.14134e-44
1.68139e-42
-5.65837e-29
-1.46335e-06
-1.48274e-05
-4.60887e-22
-6.58049e-81
-1.73098e-79
1.95784e-54
1.48e-56
-2.94264e-44
-5.11588e-43
-1.07308e-45
-9.66125e-81
-1.16157e-80
-9.31083e-84
-1.06296e-10
-2.89595e-11
9.82795e-25
0.00435803
-0.0143454
0.241807
0.114172
2.93795e-69
1.54063e-69
1.06428e-68
4.65859e-19
1.43204e-19
-6.20672e-80
2.59621e-80
1.97407e-82
1.19012e-80
-1.69003e-39
4.24824e-63
-8.87397e-76
-7.64501e-76
6.61504e-93
5.04593e-94
1.74651e-94
4.09165e-95
1.13922e-94
8.85395e-96
7.37343e-15
-4.99784e-34
-6.04596e-34
-1.69548e-41
1.17092e-39
-9.7229e-42
3.73538e-84
2.52846e-44
-2.36006e-18
-3.17866e-17
-1.08013e-19
-6.82626e-17
-3.18516e-16
-2.86409e-16
-2.24883e-15
-3.5368e-17
-7.15064e-15
1.68976e-14
1.53553e-14
-6.15479e-14
-1.57508e-13
7.19387e-74
5.10011e-74
-1.20078e-40
-1.29106e-39
1.11614e-86
-1.14342e-88
6.55483e-44
1.0481e-41
5.20465e-89
6.2788e-88
-3.29744e-18
-7.32962e-19
5.9169e-74
4.16341e-74
5.5067e-72
-1.29543e-71
5.63926e-71
4.03515e-79
4.73704e-78
-5.88581e-77
-3.2618e-32
2.37722e-45
3.67938e-46
-3.60502e-78
-3.51825e-77
-2.03523e-78
-1.34626e-77
-5.48877e-79
-3.19282e-78
3.3907e-24
4.04948e-25
1.06061e-25
1.55576e-35
-5.88085e-48
-2.451e-48
-3.99019e-49
2.73463e-34
6.81404e-53
1.42546e-51
-1.63178e-74
-3.53717e-38
-4.05599e-39
-2.71709e-38
-2.94087e-39
3.87928e-38
4.62126e-39
4.32819e-38
5.09338e-39
-4.6107e-38
5.52245e-40
5.93681e-40
6.56187e-41
6.67696e-41
7.51258e-42
7.34008e-42
-7.13364e-41
8.36293e-43
2.87228e-47
0.671295
-0.0837982
-0.219435
-0.0892464
-0.0703263
-0.00971353
0.000725159
0.00271902
0.00215317
-0.0207362
0.000493664
0.000150017
0.0013815
-2.41865e-05
0.000633243
-4.76317e-05
0.000192511
-3.22613e-05
-1.25289e-05
-4.75572e-06
-1.63841e-05
-1.46134e-06
-6.69232e-06
-2.21327e-07
1.55506e-07
6.82455e-08
6.70204e-09
2.49145e-08
6.14069e-09
1.15135e-09
-4.40287e-10
-1.72288e-10
-5.74019e-11
-1.63117e-11
1.54288e-08
-5.93337e-11
-3.9798e-12
7.66102e-13
2.71679e-13
-1.87848e-10
1.07033e-13
2.8538e-14
-1.47912e-11
7.75506e-26
1.15153e-26
6.56725e-44
2.06211e-44
3.41374e-100
5.81805e-101
2.6327e-93
3.31735e-94
3.06898e-95
3.92789e-95
3.71406e-96
4.6017e-96
-3.77564e-90
4.39084e-97
-1.67823e-15
-7.90765e-16
7.23884e-15
-2.83157e-16
2.31971e-81
-4.62304e-05
-1.36204e-16
-3.47069e-17
4.38566e-82
8.10468e-81
1.07505e-70
4.08466e-85
-1.16532e-50
-2.17376e-51
4.6976e-82
3.46633e-81
8.75919e-07
-1.36831e-06
4.14354e-07
8.0483e-43
9.2516e-44
-7.67535e-44
-9.19544e-45
-9.50975e-45
-1.07406e-45
2.10343e-75
-1.72769e-77
-4.80729e-70
-5.60572e-71
5.6608e-18
5.62893e-18
-6.36436e-19
-6.37911e-19
8.5368e-17
5.84815e-17
5.19305e-16
-1.21745e-25
-4.35514e-21
-1.54511e-46
-1.88935e-47
-1.16197e-74
-1.198e-74
-3.05343e-13
-1.5297e-12
-8.23292e-17
-8.23486e-18
3.9088e-19
1.54878e-19
-1.91404e-18
4.82135e-20
2.79432e-20
6.62635e-21
1.24013e-20
1.41233e-21
-1.27737e-23
-7.03686e-24
2.91841e-22
-2.62229e-24
-2.85068e-24
-6.27696e-25
-7.29087e-25
-1.32065e-25
-1.51353e-25
-2.49622e-26
-2.76796e-26
-4.37721e-27
-1.82891e-28
-3.1795e-29
3.64688e-29
6.16325e-30
-4.95655e-27
2.91049e-30
4.88879e-31
1.02984e-30
8.14705e-32
-1.69404e-33
-2.05482e-34
1.34949e-32
1.85513e-36
-7.80461e-35
7.41029e-20
6.83761e-20
1.82931e-76
1.96639e-77
5.69258e-73
3.83659e-73
1.72243e-29
-1.74769e-11
-4.49544e-14
-1.2842e-17
-1.22828e-44
-4.88048e-43
-5.42182e-81
-7.83975e-80
0.00266493
0.000837191
0.064781
0.0323057
0.0413969
0.012106
-4.9943e-55
-3.5608e-56
5.37494e-97
5.47124e-96
1.26773e-51
2.4376e-52
5.43609e-06
-5.74785e-50
1.6451e-82
8.60537e-82
1.56201e-80
3.33789e-81
2.47455e-95
2.04021e-99
0.00143301
3.3194e-76
-1.10228e-73
2.23202e-33
-3.94178e-17
3.20007e-86
1.30723e-18
0.0532304
5.11978e-98
-1.20052e-11
-1.75692e-10
-2.86082e-59
1.77933e-83
-1.18232e-12
-8.49554e-12
-2.68509e-12
-3.35919e-11
-3.27129e-11
-2.10253e-10
-1.48263e-73
-1.80369e-73
7.40001e-11
-1.85696e-72
-2.54064e-72
-2.30948e-71
-3.40664e-71
-2.85962e-70
-4.48428e-70
-3.51439e-69
-5.83324e-69
-3.85341e-37
-2.72383e-36
-2.38339e-35
-1.91857e-35
-1.68859e-34
2.33367e-34
2.57781e-35
2.14034e-34
1.97682e-33
-1.21563e-33
-1.14367e-32
-6.23011e-32
-6.16373e-31
-5.09619e-31
-4.9838e-30
2.71954e-31
3.38411e-30
9.91001e-29
9.68584e-28
-5.15911e-32
2.28413e-35
9.11748e-28
8.45533e-27
1.00296e-28
9.25634e-27
7.87257e-26
-5.24471e-27
-7.70558e-26
7.3299e-25
-4.30097e-68
-7.49493e-68
-5.21383e-67
-9.50152e-67
-6.27701e-66
-1.18971e-65
-7.47701e-65
-3.056e-51
-1.92278e-15
-1.57047e-82
5.68604e-70
3.6221e-43
-1.0481e-84
-8.31456e-84
1.89805e-82
6.47761e-82
9.20736e-81
1.22124e-81
5.63946e-82
1.65404e-81
4.3182e-80
1.01796e-82
6.44824e-83
-2.7894e-82
-2.23169e-82
-4.34761e-84
-5.58658e-83
-7.88082e-25
-7.51556e-24
1.47339e-88
1.77782e-87
-1.18461e-71
-7.41249e-73
2.99779e-72
1.42003e-95
1.13314e-78
1.3267e-77
4.74618e-26
1.26942e-26
1.27933e-21
-4.17896e-78
7.74544e-79