/*--------------------------------*- C++ -*----------------------------------*\
  =========                 |
  \\      /  F ield         | OpenFOAM: The Open Source CFD Toolbox
   \\    /   O peration     | Website:  https://openfoam.org
    \\  /    A nd           | Version:  6
     \\/     M anipulation  |
\*---------------------------------------------------------------------------*/
FoamFile
{
    version     2.0;
    format      ascii;
    class       volScalarField;
    location    "777600";
    object      Cg0;
}
// * * * * * * * * * * * * * * * * * * * * * * * * * * * * * * * * * * * * * //

dimensions      [1 -3 0 0 0 0 0];

internalField   nonuniform List<scalar> 
184
(
4.34187e-10
4.34187e-10
4.34212e-10
4.3696e-10
4.85861e-10
1.16477e-09
5.49151e-09
2.04459e-08
0.000180573
0.00271547
0.00809513
0.0156633
0.0244025
0.0335253
0.0425606
0.0512667
0.0595385
0.0673452
0.0746935
0.0816076
0.0881185
0.0942586
0.100059
0.105549
0.110753
0.115695
0.120396
0.12461
0.119318
0.114012
0.108936
0.104074
0.0994134
0.0949409
0.0906459
0.0865188
0.0825508
0.0787341
0.0750618
0.0715273
0.0681248
0.0648488
0.0616942
0.0586565
0.055731
0.0529139
0.0502011
0.0475889
0.0450739
0.0426527
0.0403221
0.038079
0.0359205
0.0338438
0.0318461
0.0299248
0.0280774
0.0263015
0.0245946
0.0229545
0.0213789
0.0198657
0.0184128
0.0170183
0.01568
0.0143962
0.0131649
0.0119844
0.010853
0.0097688
0.0087303
0.00773585
0.00678369
0.00587265
0.00500028
0.00416779
0.00336929
0.00260991
0.0018808
0.00118819
0.000526446
9.12208e-06
1.29047e-06
4.60845e-07
1.92559e-07
8.2959e-08
3.52987e-08
1.54265e-08
6.84523e-09
3.54898e-09
4.78682e-09
4.41076e-09
5.27712e-09
5.49393e-09
5.1921e-09
5.49457e-09
5.54478e-09
5.50541e-09
5.45489e-09
5.49935e-09
5.24969e-09
5.01274e-09
4.78749e-09
4.57306e-09
4.36863e-09
4.17351e-09
3.98712e-09
3.80897e-09
3.63868e-09
3.47589e-09
3.3203e-09
3.17165e-09
3.02969e-09
2.89419e-09
2.76492e-09
2.64165e-09
2.52418e-09
2.41229e-09
2.30578e-09
2.20444e-09
2.10807e-09
2.01647e-09
1.92947e-09
1.84688e-09
1.76851e-09
1.69419e-09
1.62376e-09
1.55706e-09
1.49392e-09
1.43421e-09
1.37777e-09
1.32448e-09
1.27382e-09
1.22437e-09
1.17584e-09
1.12196e-09
1.06594e-09
1.00893e-09
9.51885e-10
8.95875e-10
8.4187e-10
7.90675e-10
7.42887e-10
6.98897e-10
6.58907e-10
6.22958e-10
5.90957e-10
5.62715e-10
5.37974e-10
5.16435e-10
4.97781e-10
4.81696e-10
4.67872e-10
4.56025e-10
4.45897e-10
4.37258e-10
4.2991e-10
4.2368e-10
4.18427e-10
4.14029e-10
4.10389e-10
4.07427e-10
4.05076e-10
4.03282e-10
4.02002e-10
4.01199e-10
4.00841e-10
4.0089e-10
4.01327e-10
4.02123e-10
4.03249e-10
4.04678e-10
4.06378e-10
4.08322e-10
4.10476e-10
4.1281e-10
4.1529e-10
4.17885e-10
4.20563e-10
4.23294e-10
4.26048e-10
4.28798e-10
4.31519e-10
4.34187e-10
)
;

boundaryField
{
    bc0
    {
        type            zeroGradient;
    }
    bc1
    {
        type            zeroGradient;
    }
    bc2
    {
        type            zeroGradient;
    }
    bc3
    {
        type            zeroGradient;
    }
    top
    {
        type            zeroGradient;
    }
    bottom
    {
        type            zeroGradient;
    }
}


// ************************************************************************* //
