/*--------------------------------*- C++ -*----------------------------------*\
  =========                 |
  \\      /  F ield         | OpenFOAM: The Open Source CFD Toolbox
   \\    /   O peration     | Website:  https://openfoam.org
    \\  /    A nd           | Version:  6
     \\/     M anipulation  |
\*---------------------------------------------------------------------------*/
FoamFile
{
    version     2.0;
    format      ascii;
    class       volScalarField;
    location    "777600";
    object      Cg1;
}
// * * * * * * * * * * * * * * * * * * * * * * * * * * * * * * * * * * * * * //

dimensions      [1 -3 0 0 0 0 0];

internalField   nonuniform List<scalar> 
184
(
0.000874926
0.000874926
0.000874988
0.000880936
0.000959188
0.00186978
0.00864239
0.0294389
0.0545039
0.0657569
0.0740054
0.07991
0.0841949
0.0873896
0.089844
0.0917854
0.0933629
0.0946761
0.0957931
0.0967613
0.0976149
0.0983785
0.0990705
0.0997049
0.100292
0.100841
0.101358
0.101752
0.103024
0.104148
0.105225
0.106258
0.10725
0.108205
0.109124
0.11001
0.110865
0.111691
0.112488
0.11326
0.114006
0.114727
0.115426
0.116103
0.116758
0.117393
0.118008
0.118605
0.119183
0.119744
0.120287
0.120815
0.121326
0.121822
0.122303
0.122769
0.123222
0.123661
0.124087
0.1245
0.1249
0.125289
0.125666
0.126031
0.126385
0.126729
0.127062
0.127385
0.127698
0.128001
0.128295
0.128579
0.128857
0.129123
0.129389
0.129633
0.129886
0.130106
0.130345
0.130553
0.130761
0.130371
0.126729
0.123127
0.119609
0.116177
0.112828
0.109561
0.106374
0.103266
0.100236
0.0972811
0.0944012
0.0915947
0.0888601
0.0861963
0.0836019
0.0810758
0.0786166
0.0762233
0.0738946
0.0716292
0.0694262
0.0672842
0.0652023
0.0631791
0.0612138
0.0593051
0.057452
0.0556534
0.0539083
0.0522158
0.0505747
0.0489841
0.0474431
0.0459505
0.0445056
0.0431074
0.0417549
0.0404473
0.0391837
0.0379631
0.0367849
0.0356482
0.0345521
0.0334959
0.0324788
0.0315001
0.030559
0.0296549
0.0287871
0.0279549
0.0271544
0.0263653
0.025554
0.0246698
0.0237183
0.0227065
0.0216449
0.0205469
0.0194266
0.0182979
0.0171736
0.0160653
0.014983
0.0139349
0.0129276
0.0119662
0.0110543
0.0101941
0.00938675
0.00863255
0.0079309
0.00728061
0.00667999
0.00612698
0.00561926
0.00515432
0.00472955
0.0043423
0.00398991
0.0036698
0.00337941
0.00311631
0.00287818
0.0026628
0.00246809
0.00229209
0.00213298
0.00198904
0.00185872
0.00174054
0.00163315
0.00153532
0.00144591
0.00136387
0.00128825
0.00121819
0.00115288
0.00109159
0.00103371
0.000978631
0.000925852
0.000874925
)
;

boundaryField
{
    bc0
    {
        type            zeroGradient;
    }
    bc1
    {
        type            zeroGradient;
    }
    bc2
    {
        type            zeroGradient;
    }
    bc3
    {
        type            zeroGradient;
    }
    top
    {
        type            zeroGradient;
    }
    bottom
    {
        type            zeroGradient;
    }
}


// ************************************************************************* //
