/*--------------------------------*- C++ -*----------------------------------*\
  =========                 |
  \\      /  F ield         | OpenFOAM: The Open Source CFD Toolbox
   \\    /   O peration     | Website:  https://openfoam.org
    \\  /    A nd           | Version:  6
     \\/     M anipulation  |
\*---------------------------------------------------------------------------*/
FoamFile
{
    version     2.0;
    format      ascii;
    class       volScalarField;
    location    "777600";
    object      Cg3;
}
// * * * * * * * * * * * * * * * * * * * * * * * * * * * * * * * * * * * * * //

dimensions      [1 -3 0 0 0 0 0];

internalField   nonuniform List<scalar> 
184
(
0.199841
0.199841
0.199816
0.197933
0.181154
0.114538
0.0527103
0.0172222
1.7461e-05
1.50076e-05
1.797e-05
1.47797e-05
1.2357e-05
1.04561e-05
8.9231e-06
7.65499e-06
6.58149e-06
5.65405e-06
4.83857e-06
4.11065e-06
3.4525e-06
2.8509e-06
2.29565e-06
1.78111e-06
1.2984e-06
8.43577e-07
4.1332e-07
3.10088e-75
7.55742e-07
1.47333e-06
2.16653e-06
2.82823e-06
3.46806e-06
4.08581e-06
4.68345e-06
5.26249e-06
5.82423e-06
6.3698e-06
6.90022e-06
7.41636e-06
7.91899e-06
8.40882e-06
8.88646e-06
9.35245e-06
9.80731e-06
1.02515e-05
1.06854e-05
1.11094e-05
1.15238e-05
1.19291e-05
1.23254e-05
1.27132e-05
1.30926e-05
1.3464e-05
1.38276e-05
1.41839e-05
1.4533e-05
1.48752e-05
1.52108e-05
1.55402e-05
1.58634e-05
1.61807e-05
1.64923e-05
1.67983e-05
1.7099e-05
1.73951e-05
1.76875e-05
1.79781e-05
1.82699e-05
1.85671e-05
1.8876e-05
1.92128e-05
1.68594e-05
1.75633e-05
8.89959e-06
1.44094e-05
2.14988e-77
1.64807e-05
4.55124e-07
1.01238e-05
1.1062e-05
0.000678847
0.0052453
0.00977978
0.0142269
0.0185858
0.0228575
0.0270431
0.0311439
0.0351611
0.0390957
0.0429488
0.0467215
0.0504147
0.0540294
0.0575665
0.0610269
0.0644116
0.0677214
0.0709571
0.0741196
0.0772098
0.0802285
0.0831765
0.0860546
0.0888637
0.0916046
0.094278
0.0968847
0.0994256
0.101901
0.104313
0.106661
0.108946
0.111168
0.11333
0.115431
0.117472
0.119454
0.121377
0.123243
0.125051
0.126803
0.1285
0.130141
0.131728
0.13326
0.13474
0.136167
0.137542
0.138866
0.140139
0.141365
0.142575
0.143834
0.145194
0.146671
0.148258
0.149946
0.151717
0.153554
0.155438
0.157352
0.159279
0.161204
0.163115
0.164998
0.166845
0.168647
0.170398
0.172093
0.173728
0.1753
0.176808
0.178251
0.179629
0.180943
0.182194
0.183384
0.184513
0.185586
0.186603
0.187567
0.188481
0.189347
0.190168
0.190947
0.191685
0.192386
0.193052
0.193686
0.194289
0.194863
0.195412
0.195936
0.196438
0.19692
0.197383
0.197828
0.198257
0.198672
0.199074
0.199463
0.19984
)
;

boundaryField
{
    bc0
    {
        type            zeroGradient;
    }
    bc1
    {
        type            zeroGradient;
    }
    bc2
    {
        type            zeroGradient;
    }
    bc3
    {
        type            zeroGradient;
    }
    top
    {
        type            zeroGradient;
    }
    bottom
    {
        type            zeroGradient;
    }
}


// ************************************************************************* //
