/*--------------------------------*- C++ -*----------------------------------*\
  =========                 |
  \\      /  F ield         | OpenFOAM: The Open Source CFD Toolbox
   \\    /   O peration     | Website:  https://openfoam.org
    \\  /    A nd           | Version:  6
     \\/     M anipulation  |
\*---------------------------------------------------------------------------*/
FoamFile
{
    version     2.0;
    format      ascii;
    class       volScalarField;
    location    "777600";
    object      Cw3;
}
// * * * * * * * * * * * * * * * * * * * * * * * * * * * * * * * * * * * * * //

dimensions      [0 -3 0 0 1 0 0];

internalField   nonuniform List<scalar> 
184
(
0.000165027
0.000165027
0.000165022
0.000164937
0.000164932
0.000164949
0.000164961
0.000164965
0.000164968
0.000164972
0.000164977
0.000164983
0.00016499
0.000164998
0.000165
0.00016501
0.000165008
0.000165018
0.000165015
0.000165023
0.000165019
0.000165027
0.000164999
0.00016445
0.000151962
-6.60267e-05
-0.00265984
-0.0160257
-0.00185651
3.12877e-05
0.000159264
0.000164851
0.00016503
0.000165025
0.000165033
0.000165025
0.000165033
0.000165024
0.000165032
0.000165024
0.000165032
0.000165024
0.000165031
0.000165024
0.000165031
0.000165024
0.00016503
0.000165024
0.00016503
0.000165024
0.00016503
0.000165024
0.00016503
0.000165024
0.00016503
0.000165024
0.000165029
0.000165024
0.000165029
0.000165024
0.000165029
0.000165024
0.000165029
0.000165025
0.000165029
0.000165025
0.000165029
0.000165025
0.000165029
0.000165025
0.000165029
0.000165025
0.000165029
0.000165025
0.000165029
0.000165025
0.000165029
0.000165025
0.000165029
0.000165025
0.000165029
0.000165026
0.000165029
0.000165026
0.000165028
0.000165026
0.000165028
0.000165026
0.000165028
0.000165026
0.000165027
0.000165028
0.000165026
0.000165028
0.000165026
0.000165028
0.000165026
0.000165028
0.000165026
0.000165028
0.000165026
0.000165028
0.000165026
0.000165027
0.000165027
0.000165027
0.000165027
0.000165027
0.000165027
0.000165027
0.000165027
0.000165027
0.000165036
0.000165018
0.000165027
0.000165027
0.000165027
0.000165027
0.000165027
0.000165027
0.000165027
0.000165027
0.000165027
0.000165027
0.000165027
0.000165027
0.000165027
0.000165027
0.000165027
0.000165027
0.000165038
0.000165151
0.000165049
0.000162712
0.00016672
0.00017142
0.000171741
0.000171354
0.000170985
0.00017075
0.000170596
0.00017045
0.00017025
0.000169941
0.000169487
0.000168866
0.000168068
0.000167098
0.00016597
0.000164706
0.000163336
0.000161891
0.000160403
0.000158901
0.000157412
0.000155956
0.000154551
0.000153206
0.000151929
0.000150723
0.00014959
0.000148528
0.000147537
0.000146615
0.00014576
0.00014497
0.000144245
0.000143582
0.000142979
0.000142434
0.000141946
0.000141512
0.000141134
0.000140815
0.000140568
0.000140412
0.000140363
0.000140472
0.000140931
0.000141994
0.000144139
0.000148189
0.000155322
0.000165027
)
;

boundaryField
{
    bc0
    {
        type            zeroGradient;
    }
    bc1
    {
        type            zeroGradient;
    }
    bc2
    {
        type            zeroGradient;
    }
    bc3
    {
        type            zeroGradient;
    }
    top
    {
        type            zeroGradient;
    }
    bottom
    {
        type            zeroGradient;
    }
}


// ************************************************************************* //
