/*--------------------------------*- C++ -*----------------------------------*\
  =========                 |
  \\      /  F ield         | OpenFOAM: The Open Source CFD Toolbox
   \\    /   O peration     | Website:  https://openfoam.org
    \\  /    A nd           | Version:  6
     \\/     M anipulation  |
\*---------------------------------------------------------------------------*/
FoamFile
{
    version     2.0;
    format      ascii;
    class       volScalarField;
    location    "777600";
    object      Cw5;
}
// * * * * * * * * * * * * * * * * * * * * * * * * * * * * * * * * * * * * * //

dimensions      [0 -3 0 0 1 0 0];

internalField   nonuniform List<scalar> 
184
(
0.000461667
0.000461667
0.000461657
0.000461648
0.0004644
0.000495958
0.000726523
0.00143294
0.00228428
0.00266657
0.00294659
0.00314709
0.00329266
0.00340128
0.00348477
0.00355086
0.00360457
0.00364932
0.00368737
0.00372038
0.00374946
0.00377551
0.0037991
0.00382129
0.00385365
0.0040891
0.0066972
0.0200582
0.00595108
0.00410464
0.00401415
0.00404375
0.00407732
0.00410972
0.00414098
0.00417106
0.00420014
0.00422817
0.00425529
0.00428148
0.00430685
0.00433136
0.00435512
0.0043781
0.0044004
0.00442196
0.0044429
0.00446316
0.00448283
0.00450187
0.00452037
0.00453827
0.00455566
0.00457249
0.00458883
0.00460465
0.00462022
0.00463515
0.00464962
0.00466366
0.00467726
0.00469038
0.00470317
0.0047156
0.00472768
0.00473937
0.00475072
0.00476169
0.00477235
0.00478265
0.00479266
0.00480232
0.00481176
0.00482082
0.00482983
0.00483813
0.00484668
0.00485405
0.00486191
0.00486843
0.00487424
0.00485918
0.00473716
0.00461557
0.00449642
0.00437995
0.00426625
0.00415528
0.00404704
0.00394146
0.00383851
0.00373815
0.0036403
0.00354497
0.00345206
0.00336157
0.00327343
0.00318761
0.00310407
0.00302276
0.00294364
0.00286669
0.00279184
0.00271908
0.00264835
0.00257961
0.00251285
0.002448
0.00238505
0.00232394
0.00226466
0.00220716
0.00215143
0.00209734
0.00204501
0.00199431
0.00194522
0.00189772
0.00185177
0.00180734
0.00176441
0.00172295
0.00168292
0.0016443
0.00160706
0.00157118
0.00153662
0.00150338
0.00147141
0.00144071
0.00141127
0.00138335
0.00135599
0.00132323
0.00130627
0.00128854
0.00125701
0.00122155
0.00118444
0.00114645
0.00110792
0.00106914
0.00103037
0.000991878
0.00095389
0.000916631
0.000880301
0.00084508
0.000811127
0.000778579
0.000747549
0.000718126
0.000690376
0.000664334
0.000640013
0.000617396
0.000596448
0.000577112
0.000559318
0.000542983
0.000528022
0.000514344
0.00050186
0.000490482
0.000480128
0.000470718
0.000462176
0.000454432
0.000447419
0.000441073
0.000435336
0.000430155
0.000425485
0.000421294
0.000417575
0.000414346
0.000411612
0.00040948
0.000408423
0.000409081
0.000412678
0.000421342
0.000438127
0.000461667
)
;

boundaryField
{
    bc0
    {
        type            zeroGradient;
    }
    bc1
    {
        type            zeroGradient;
    }
    bc2
    {
        type            zeroGradient;
    }
    bc3
    {
        type            zeroGradient;
    }
    top
    {
        type            zeroGradient;
    }
    bottom
    {
        type            zeroGradient;
    }
}


// ************************************************************************* //
