/*--------------------------------*- C++ -*----------------------------------*\
  =========                 |
  \\      /  F ield         | OpenFOAM: The Open Source CFD Toolbox
   \\    /   O peration     | Website:  https://openfoam.org
    \\  /    A nd           | Version:  6
     \\/     M anipulation  |
\*---------------------------------------------------------------------------*/
FoamFile
{
    version     2.0;
    format      ascii;
    class       volScalarField;
    location    "777600";
    object      Cw6;
}
// * * * * * * * * * * * * * * * * * * * * * * * * * * * * * * * * * * * * * //

dimensions      [0 -3 0 0 1 0 0];

internalField   nonuniform List<scalar> 
184
(
0.000299133
0.000299133
0.000299125
0.000298971
0.000298963
0.000298996
0.000299015
0.000299022
0.000299026
0.000299033
0.000299043
0.000299054
0.000299067
0.000299081
0.000299084
0.000299101
0.000299099
0.000299116
0.000299111
0.000299127
0.000299118
0.000299134
0.000299123
0.000299139
0.000299126
0.000299154
0.000299255
0.000299884
0.000299222
0.000299151
0.000299128
0.000299137
0.000299146
0.000299129
0.000299145
0.000299129
0.000299144
0.000299128
0.000299143
0.000299128
0.000299142
0.000299127
0.000299141
0.000299127
0.00029914
0.000299127
0.000299139
0.000299127
0.000299139
0.000299127
0.000299138
0.000299128
0.000299138
0.000299128
0.000299138
0.000299128
0.000299138
0.000299129
0.000299138
0.000299129
0.000299138
0.000299129
0.000299137
0.000299129
0.000299137
0.000299129
0.000299137
0.00029913
0.000299137
0.00029913
0.000299137
0.00029913
0.000299137
0.00029913
0.000299136
0.00029913
0.000299136
0.00029913
0.000299136
0.00029913
0.000299136
0.00029913
0.000299136
0.000299131
0.000299136
0.000299131
0.000299136
0.000299131
0.000299136
0.000299131
0.000299133
0.000299136
0.000299131
0.000299135
0.000299131
0.000299135
0.000299131
0.000299135
0.000299131
0.000299135
0.000299131
0.000299135
0.000299131
0.000299133
0.000299133
0.000299133
0.000299133
0.000299133
0.000299133
0.000299133
0.000299133
0.000299133
0.00029915
0.000299117
0.000299133
0.000299134
0.000299134
0.000299134
0.000299133
0.000299133
0.000299133
0.000299133
0.000299133
0.000299133
0.000299133
0.000299133
0.000299133
0.000299133
0.000299133
0.000299134
0.000299153
0.000299358
0.000299174
0.000294938
0.000302203
0.000310721
0.000311303
0.000310602
0.000309933
0.000309507
0.000309227
0.000308964
0.0003086
0.000308041
0.000307218
0.000306092
0.000304646
0.000302887
0.000300842
0.000298552
0.000296069
0.00029345
0.000290752
0.00028803
0.00028533
0.000282692
0.000280144
0.000277706
0.000275392
0.000273206
0.000271152
0.000269227
0.000267431
0.000265759
0.00026421
0.000262779
0.000261464
0.000260262
0.000259169
0.000258181
0.000257296
0.00025651
0.000255825
0.000255247
0.000254798
0.000254516
0.000254427
0.000254624
0.000255456
0.000257384
0.000261272
0.000268613
0.000281543
0.000299133
)
;

boundaryField
{
    bc0
    {
        type            zeroGradient;
    }
    bc1
    {
        type            zeroGradient;
    }
    bc2
    {
        type            zeroGradient;
    }
    bc3
    {
        type            zeroGradient;
    }
    top
    {
        type            zeroGradient;
    }
    bottom
    {
        type            zeroGradient;
    }
}


// ************************************************************************* //
