/*--------------------------------*- C++ -*----------------------------------*\
  =========                 |
  \\      /  F ield         | OpenFOAM: The Open Source CFD Toolbox
   \\    /   O peration     | Website:  https://openfoam.org
    \\  /    A nd           | Version:  6
     \\/     M anipulation  |
\*---------------------------------------------------------------------------*/
FoamFile
{
    version     2.0;
    format      ascii;
    class       volScalarField;
    location    "777600";
    object      Cw7;
}
// * * * * * * * * * * * * * * * * * * * * * * * * * * * * * * * * * * * * * //

dimensions      [0 -3 0 0 1 0 0];

internalField   nonuniform List<scalar> 
184
(
0.000199422
0.000199422
0.000199416
0.000199314
0.000199309
0.000199331
0.000199344
0.000199348
0.000199351
0.000199355
0.000199362
0.000199369
0.000199378
0.000199387
0.000199389
0.000199401
0.000199399
0.000199411
0.000199407
0.000199418
0.000199412
0.000199423
0.000199415
0.000199426
0.000199417
0.000199436
0.000199503
0.000199922
0.000199481
0.000199434
0.000199419
0.000199424
0.000199431
0.00019942
0.00019943
0.000199419
0.000199429
0.000199419
0.000199428
0.000199419
0.000199428
0.000199418
0.000199427
0.000199418
0.000199426
0.000199418
0.000199426
0.000199418
0.000199426
0.000199418
0.000199426
0.000199418
0.000199425
0.000199419
0.000199425
0.000199419
0.000199425
0.000199419
0.000199425
0.000199419
0.000199425
0.000199419
0.000199425
0.000199419
0.000199425
0.00019942
0.000199425
0.00019942
0.000199425
0.00019942
0.000199424
0.00019942
0.000199424
0.00019942
0.000199424
0.00019942
0.000199424
0.00019942
0.000199424
0.00019942
0.000199424
0.00019942
0.000199424
0.00019942
0.000199424
0.00019942
0.000199424
0.000199421
0.000199424
0.000199421
0.000199422
0.000199424
0.000199421
0.000199424
0.000199421
0.000199424
0.000199421
0.000199424
0.000199421
0.000199424
0.000199421
0.000199423
0.000199421
0.000199422
0.000199422
0.000199422
0.000199422
0.000199422
0.000199422
0.000199422
0.000199422
0.000199422
0.000199433
0.000199411
0.000199422
0.000199422
0.000199422
0.000199422
0.000199422
0.000199422
0.000199422
0.000199422
0.000199422
0.000199422
0.000199422
0.000199422
0.000199422
0.000199422
0.000199422
0.000199422
0.000199435
0.000199572
0.000199449
0.000196625
0.000201469
0.000207148
0.000207536
0.000207068
0.000206622
0.000206338
0.000206152
0.000205976
0.000205733
0.000205361
0.000204812
0.000204061
0.000203097
0.000201925
0.000200561
0.000199035
0.000197379
0.000195633
0.000193835
0.00019202
0.00019022
0.000188461
0.000186763
0.000185138
0.000183595
0.000182138
0.000180768
0.000179485
0.000178287
0.000177173
0.00017614
0.000175186
0.000174309
0.000173508
0.000172779
0.000172121
0.000171531
0.000171007
0.00017055
0.000170165
0.000169866
0.000169678
0.000169618
0.00016975
0.000170305
0.00017159
0.000174182
0.000179076
0.000187695
0.000199422
)
;

boundaryField
{
    bc0
    {
        type            zeroGradient;
    }
    bc1
    {
        type            zeroGradient;
    }
    bc2
    {
        type            zeroGradient;
    }
    bc3
    {
        type            zeroGradient;
    }
    top
    {
        type            zeroGradient;
    }
    bottom
    {
        type            zeroGradient;
    }
}


// ************************************************************************* //
