/*--------------------------------*- C++ -*----------------------------------*\
  =========                 |
  \\      /  F ield         | OpenFOAM: The Open Source CFD Toolbox
   \\    /   O peration     | Website:  https://openfoam.org
    \\  /    A nd           | Version:  6
     \\/     M anipulation  |
\*---------------------------------------------------------------------------*/
FoamFile
{
    version     2.0;
    format      ascii;
    class       volScalarField;
    location    "777600";
    object      hp;
}
// * * * * * * * * * * * * * * * * * * * * * * * * * * * * * * * * * * * * * //

dimensions      [0 1 0 0 0 0 0];

internalField   nonuniform List<scalar> 
184
(
0.02
0.0100003
6.02608e-07
-0.00999902
-0.0199986
-0.0299979
-0.0399972
-0.0499961
-0.0599947
-0.0699929
-0.0799905
-0.0899873
-0.0999832
-0.109978
-0.119971
-0.129962
-0.139951
-0.149937
-0.15992
-0.169899
-0.179874
-0.189844
-0.199807
-0.209765
-0.219715
-0.229658
-0.239592
-0.249517
-0.259434
-0.269342
-0.27924
-0.28913
-0.299012
-0.308887
-0.318756
-0.328621
-0.338483
-0.348346
-0.35821
-0.368078
-0.377953
-0.387836
-0.397731
-0.407638
-0.417558
-0.427494
-0.437445
-0.447411
-0.457392
-0.467386
-0.477393
-0.48741
-0.497436
-0.50747
-0.51751
-0.527556
-0.537605
-0.547657
-0.557711
-0.567766
-0.577821
-0.587877
-0.597933
-0.607989
-0.618044
-0.628099
-0.638153
-0.648208
-0.658261
-0.668315
-0.678368
-0.688421
-0.698474
-0.708527
-0.718579
-0.728632
-0.738684
-0.748736
-0.758788
-0.768839
-0.778891
-0.788942
-0.798993
-0.809043
-0.819093
-0.829143
-0.839192
-0.84924
-0.859287
-0.869334
-0.87938
-0.889426
-0.899471
-0.909518
-0.919564
-0.929612
-0.939659
-0.949707
-0.959753
-0.969798
-0.97984
-0.989878
-0.999912
-1.00994
-1.01996
-1.02998
-1.04
-1.05003
-1.06006
-1.07012
-1.08019
-1.09029
-1.10042
-1.11055
-1.12068
-1.13079
-1.14087
-1.15093
-1.16096
-1.17098
-1.18099
-1.191
-1.201
-1.211
-1.221
-1.231
-1.24101
-1.25101
-1.26103
-1.27107
-1.28108
-1.28956
-1.26393
-1.00849
-0.699552
-0.526037
-0.427441
-0.366562
-0.326146
-0.297811
-0.277134
-0.261602
-0.249688
-0.240414
-0.233129
-0.227378
-0.222837
-0.219268
-0.216494
-0.214376
-0.212811
-0.211713
-0.211018
-0.210673
-0.210636
-0.210871
-0.211352
-0.212056
-0.212965
-0.214066
-0.215347
-0.2168
-0.21842
-0.220203
-0.222148
-0.224256
-0.226529
-0.228972
-0.231592
-0.234396
-0.237397
-0.240607
-0.244043
-0.247725
-0.251677
-0.255927
-0.26051
-0.265467
-0.270849
-0.276718
-0.283153
-0.290249
-0.298132
-0.306966
)
;

boundaryField
{
    bc0
    {
        type            fixedGradient;
        gradient        uniform -1;
    }
    bc1
    {
        type            zeroGradient;
    }
    bc2
    {
        type            zeroGradient;
    }
    bc3
    {
        type            zeroGradient;
    }
    top
    {
        type            zeroGradient;
    }
    bottom
    {
        type            zeroGradient;
    }
}


// ************************************************************************* //
