/*--------------------------------*- C++ -*----------------------------------*\
  =========                 |
  \\      /  F ield         | OpenFOAM: The Open Source CFD Toolbox
   \\    /   O peration     | Website:  https://openfoam.org
    \\  /    A nd           | Version:  6
     \\/     M anipulation  |
\*---------------------------------------------------------------------------*/
FoamFile
{
    version     2.0;
    format      ascii;
    class       surfaceScalarField;
    location    "777600";
    object      phiw;
}
// * * * * * * * * * * * * * * * * * * * * * * * * * * * * * * * * * * * * * //

dimensions      [0 3 -1 0 0 0 0];

internalField   nonuniform List<scalar> 
183
(
-5.78756e-07
-7.39205e-11
-7.10689e-11
-7.1162e-11
-7.12107e-11
-7.12095e-11
-7.11575e-11
-7.10563e-11
-7.09087e-11
-7.07163e-11
-7.0479e-11
-7.01946e-11
-6.98584e-11
-6.94639e-11
-6.90028e-11
-6.84651e-11
-6.784e-11
-6.71154e-11
-6.6279e-11
-6.5318e-11
-6.42198e-11
-6.29723e-11
-6.15645e-11
-5.99864e-11
-5.82302e-11
-5.62907e-11
-5.41654e-11
-5.18556e-11
-4.93664e-11
-4.67076e-11
-4.38937e-11
-4.09439e-11
-3.78825e-11
-3.47384e-11
-3.15443e-11
-2.83365e-11
-2.51536e-11
-2.20351e-11
-1.90205e-11
-1.61472e-11
-1.34495e-11
-1.09567e-11
-8.69233e-12
-6.67279e-12
-4.90695e-12
-3.39586e-12
-2.13301e-12
-1.10511e-12
-3.01673e-13
3.22065e-13
7.88588e-13
1.1138e-12
1.3262e-12
1.44748e-12
1.49792e-12
1.4957e-12
1.45637e-12
1.39272e-12
1.31479e-12
1.23011e-12
1.14402e-12
1.06005e-12
9.80366e-13
9.06094e-13
8.37667e-13
7.75063e-13
7.17999e-13
6.66059e-13
6.18777e-13
5.75692e-13
5.36367e-13
5.00408e-13
4.67461e-13
4.37212e-13
4.09383e-13
3.8372e-13
3.59996e-13
3.37996e-13
3.17518e-13
2.98366e-13
2.80349e-13
2.63289e-13
2.47028e-13
2.3145e-13
2.165e-13
2.0221e-13
1.88702e-13
1.76173e-13
1.64857e-13
1.54947e-13
1.46526e-13
1.39507e-13
1.33618e-13
1.28436e-13
1.23454e-13
1.18155e-13
1.12074e-13
1.0483e-13
9.61743e-14
8.60486e-14
7.46742e-14
6.26457e-14
5.09836e-14
4.11143e-14
3.47683e-14
3.37962e-14
3.9863e-14
5.39263e-14
7.54656e-14
1.01687e-13
1.27298e-13
1.45551e-13
1.50621e-13
1.40308e-13
1.17272e-13
8.78138e-14
5.89042e-14
3.54347e-14
1.91561e-14
9.33426e-15
4.12284e-15
1.69119e-15
7.55829e-16
6.63866e-16
1.32218e-15
3.16864e-15
7.18761e-15
1.44172e-14
1.63729e-14
-2.17563e-13
-5.57102e-12
-5.30725e-11
-3.74947e-10
-2.35074e-09
-6.06985e-09
-8.92254e-09
-1.10287e-08
-1.26448e-08
-1.3893e-08
-1.48449e-08
-1.55522e-08
-1.60557e-08
-1.63887e-08
-1.65791e-08
-1.66496e-08
-1.66196e-08
-1.65051e-08
-1.63195e-08
-1.60741e-08
-1.57784e-08
-1.54405e-08
-1.50672e-08
-1.46643e-08
-1.42366e-08
-1.37884e-08
-1.33233e-08
-1.28444e-08
-1.23543e-08
-1.18554e-08
-1.13496e-08
-1.08386e-08
-1.03241e-08
-9.80729e-09
-9.28945e-09
-8.77162e-09
-8.25477e-09
-7.73977e-09
-7.22744e-09
-6.71852e-09
-6.21374e-09
-5.71377e-09
-5.21927e-09
-4.73091e-09
-4.24935e-09
-3.77526e-09
-3.30934e-09
-2.85233e-09
-2.40501e-09
-1.96824e-09
-1.54295e-09
-1.13018e-09
-7.31117e-10
-3.47095e-10
)
;

boundaryField
{
    bc0
    {
        type            calculated;
        value           uniform 0;
    }
    bc1
    {
        type            calculated;
        value           uniform 0;
    }
    bc2
    {
        type            calculated;
        value           uniform 2.31482e-06;
    }
    bc3
    {
        type            calculated;
        value           uniform 0;
    }
    top
    {
        type            calculated;
        value           uniform 0;
    }
    bottom
    {
        type            calculated;
        value           uniform 0;
    }
}


// ************************************************************************* //
