/*--------------------------------*- C++ -*----------------------------------*\
  =========                 |
  \\      /  F ield         | OpenFOAM: The Open Source CFD Toolbox
   \\    /   O peration     | Website:  https://openfoam.org
    \\  /    A nd           | Version:  6
     \\/     M anipulation  |
\*---------------------------------------------------------------------------*/
FoamFile
{
    version     2.0;
    format      ascii;
    class       volVectorField;
    location    "777600";
    object      Uw;
}
// * * * * * * * * * * * * * * * * * * * * * * * * * * * * * * * * * * * * * //

dimensions      [0 1 -1 0 0 0 0];

internalField   nonuniform List<vector> 
184
(
(0 -1.44679e-06 0)
(0 -2.89415e-07 0)
(0 -7.24947e-11 0)
(0 -7.11155e-11 0)
(0 -7.11864e-11 0)
(0 -7.12101e-11 0)
(0 -7.11835e-11 0)
(0 -7.11069e-11 0)
(0 -7.09825e-11 0)
(0 -7.08125e-11 0)
(0 -7.05977e-11 0)
(0 -7.03368e-11 0)
(0 -7.00265e-11 0)
(0 -6.96611e-11 0)
(0 -6.92333e-11 0)
(0 -6.87339e-11 0)
(0 -6.81525e-11 0)
(0 -6.74777e-11 0)
(0 -6.66972e-11 0)
(0 -6.57985e-11 0)
(0 -6.47689e-11 0)
(0 -6.35961e-11 0)
(0 -6.22684e-11 0)
(0 -6.07754e-11 0)
(0 -5.91083e-11 0)
(0 -5.72605e-11 0)
(0 -5.52281e-11 0)
(0 -5.30105e-11 0)
(0 -5.0611e-11 0)
(0 -4.8037e-11 0)
(0 -4.53007e-11 0)
(0 -4.24188e-11 0)
(0 -3.94132e-11 0)
(0 -3.63105e-11 0)
(0 -3.31413e-11 0)
(0 -2.99404e-11 0)
(0 -2.6745e-11 0)
(0 -2.35944e-11 0)
(0 -2.05278e-11 0)
(0 -1.75839e-11 0)
(0 -1.47983e-11 0)
(0 -1.22031e-11 0)
(0 -9.82451e-12 0)
(0 -7.68256e-12 0)
(0 -5.78987e-12 0)
(0 -4.1514e-12 0)
(0 -2.76443e-12 0)
(0 -1.61906e-12 0)
(0 -7.03389e-13 0)
(0 1.01961e-14 0)
(0 5.55327e-13 0)
(0 9.51195e-13 0)
(0 1.22e-12 0)
(0 1.38684e-12 0)
(0 1.4727e-12 0)
(0 1.49681e-12 0)
(0 1.47603e-12 0)
(0 1.42454e-12 0)
(0 1.35375e-12 0)
(0 1.27245e-12 0)
(0 1.18707e-12 0)
(0 1.10204e-12 0)
(0 1.02021e-12 0)
(0 9.4323e-13 0)
(0 8.7188e-13 0)
(0 8.06365e-13 0)
(0 7.46531e-13 0)
(0 6.92029e-13 0)
(0 6.42418e-13 0)
(0 5.97234e-13 0)
(0 5.56029e-13 0)
(0 5.18387e-13 0)
(0 4.83934e-13 0)
(0 4.52337e-13 0)
(0 4.23298e-13 0)
(0 3.96551e-13 0)
(0 3.71858e-13 0)
(0 3.48996e-13 0)
(0 3.27757e-13 0)
(0 3.07942e-13 0)
(0 2.89358e-13 0)
(0 2.71819e-13 0)
(0 2.55158e-13 0)
(0 2.39239e-13 0)
(0 2.23975e-13 0)
(0 2.09355e-13 0)
(0 1.95456e-13 0)
(0 1.82438e-13 0)
(0 1.70515e-13 0)
(0 1.59902e-13 0)
(0 1.50737e-13 0)
(0 1.43017e-13 0)
(0 1.36563e-13 0)
(0 1.31027e-13 0)
(0 1.25945e-13 0)
(0 1.20805e-13 0)
(0 1.15115e-13 0)
(0 1.08452e-13 0)
(0 1.00502e-13 0)
(0 9.11114e-14 0)
(0 8.03614e-14 0)
(0 6.86599e-14 0)
(0 5.68146e-14 0)
(0 4.6049e-14 0)
(0 3.79413e-14 0)
(0 3.42822e-14 0)
(0 3.68296e-14 0)
(0 4.68946e-14 0)
(0 6.46959e-14 0)
(0 8.85761e-14 0)
(0 1.14493e-13 0)
(0 1.36425e-13 0)
(0 1.48086e-13 0)
(0 1.45465e-13 0)
(0 1.2879e-13 0)
(0 1.02543e-13 0)
(0 7.3359e-14 0)
(0 4.71694e-14 0)
(0 2.72954e-14 0)
(0 1.42452e-14 0)
(0 6.72855e-15 0)
(0 2.90701e-15 0)
(0 1.22351e-15 0)
(0 7.09847e-16 0)
(0 9.93023e-16 0)
(0 2.24541e-15 0)
(0 5.17813e-15 0)
(0 1.08024e-14 0)
(0 1.5395e-14 0)
(0 -1.00595e-13 0)
(0 -2.89429e-12 0)
(0 -2.93218e-11 0)
(0 -2.1401e-10 0)
(0 -1.36284e-09 0)
(0 -4.21029e-09 0)
(0 -7.4962e-09 0)
(0 -9.97561e-09 0)
(0 -1.18367e-08 0)
(0 -1.32689e-08 0)
(0 -1.4369e-08 0)
(0 -1.51986e-08 0)
(0 -1.58039e-08 0)
(0 -1.62222e-08 0)
(0 -1.64839e-08 0)
(0 -1.66143e-08 0)
(0 -1.66346e-08 0)
(0 -1.65624e-08 0)
(0 -1.64123e-08 0)
(0 -1.61968e-08 0)
(0 -1.59262e-08 0)
(0 -1.56095e-08 0)
(0 -1.52539e-08 0)
(0 -1.48657e-08 0)
(0 -1.44504e-08 0)
(0 -1.40125e-08 0)
(0 -1.35559e-08 0)
(0 -1.30839e-08 0)
(0 -1.25994e-08 0)
(0 -1.21048e-08 0)
(0 -1.16025e-08 0)
(0 -1.10941e-08 0)
(0 -1.05813e-08 0)
(0 -1.00657e-08 0)
(0 -9.54837e-09 0)
(0 -9.03053e-09 0)
(0 -8.51319e-09 0)
(0 -7.99727e-09 0)
(0 -7.4836e-09 0)
(0 -6.97298e-09 0)
(0 -6.46613e-09 0)
(0 -5.96375e-09 0)
(0 -5.46652e-09 0)
(0 -4.97509e-09 0)
(0 -4.49013e-09 0)
(0 -4.01231e-09 0)
(0 -3.5423e-09 0)
(0 -3.08084e-09 0)
(0 -2.62867e-09 0)
(0 -2.18662e-09 0)
(0 -1.75559e-09 0)
(0 -1.33656e-09 0)
(0 -9.30649e-10 0)
(0 -5.39106e-10 0)
(0 -1.73548e-10 0)
)
;

boundaryField
{
    bc0
    {
        type            zeroGradient;
    }
    bc1
    {
        type            zeroGradient;
    }
    bc2
    {
        type            zeroGradient;
    }
    bc3
    {
        type            zeroGradient;
    }
    top
    {
        type            zeroGradient;
    }
    bottom
    {
        type            zeroGradient;
    }
}


// ************************************************************************* //
