/*--------------------------------*- C++ -*----------------------------------*\
  =========                 |
  \\      /  F ield         | OpenFOAM: The Open Source CFD Toolbox
   \\    /   O peration     | Website:  https://openfoam.org
    \\  /    A nd           | Version:  6
     \\/     M anipulation  |
\*---------------------------------------------------------------------------*/
FoamFile
{
    version     2.0;
    format      ascii;
    class       volScalarField;
    location    "691200";
    object      Cg0;
}
// * * * * * * * * * * * * * * * * * * * * * * * * * * * * * * * * * * * * * //

dimensions      [1 -3 0 0 0 0 0];

internalField   nonuniform List<scalar> 
184
(
4.34187e-10
4.34187e-10
4.34189e-10
4.35039e-10
4.56678e-10
8.77602e-10
5.30565e-09
5.29276e-09
9.84317e-07
0.0014932
0.00581909
0.0124316
0.0205201
0.0293054
0.0382535
0.0470528
0.0555408
0.0636439
0.0713387
0.0786283
0.0855293
0.0920639
0.0982565
0.104131
0.10971
0.115014
0.120063
0.12461
0.118992
0.113376
0.108006
0.102867
0.0979455
0.0932278
0.0887034
0.0843624
0.0801959
0.0761956
0.0723542
0.0686648
0.0651212
0.0617174
0.058448
0.0553078
0.052292
0.0493959
0.0466152
0.0439457
0.0413835
0.0389246
0.0365654
0.0343024
0.0321322
0.0300515
0.028057
0.0261458
0.0243148
0.0225612
0.0208823
0.0192752
0.0177375
0.0162666
0.01486
0.0135154
0.0122304
0.0110029
0.00983057
0.00871143
0.0076432
0.0066239
0.005652
0.00472626
0.00384229
0.00300295
0.00220344
0.00144178
0.00071703
4.31688e-05
1.72932e-06
5.83295e-07
2.37323e-07
1.09097e-07
4.33079e-08
1.87378e-08
8.26315e-09
4.26631e-09
3.72138e-09
4.62064e-09
4.22099e-09
3.98042e-09
5.0505e-09
4.97029e-09
5.31732e-09
4.91435e-09
5.49432e-09
5.53422e-09
5.26561e-09
5.01153e-09
4.77031e-09
4.54089e-09
4.32247e-09
4.11442e-09
3.91621e-09
3.72736e-09
3.54746e-09
3.37613e-09
3.21304e-09
3.05785e-09
2.91026e-09
2.76998e-09
2.63671e-09
2.51018e-09
2.39011e-09
2.27625e-09
2.16832e-09
2.06607e-09
1.96927e-09
1.87766e-09
1.79101e-09
1.70911e-09
1.63173e-09
1.55866e-09
1.4897e-09
1.42466e-09
1.36335e-09
1.30558e-09
1.25119e-09
1.20001e-09
1.15188e-09
1.10664e-09
1.06416e-09
1.02428e-09
9.86892e-10
9.51865e-10
9.19035e-10
8.87554e-10
8.57494e-10
8.25735e-10
7.90503e-10
7.54832e-10
7.19206e-10
6.84335e-10
6.50915e-10
6.19511e-10
5.90521e-10
5.64172e-10
5.40545e-10
5.19597e-10
5.01196e-10
4.85149e-10
4.71226e-10
4.59187e-10
4.48795e-10
4.39825e-10
4.32076e-10
4.25371e-10
4.19564e-10
4.1453e-10
4.10172e-10
4.06414e-10
4.032e-10
4.0049e-10
3.98254e-10
3.96475e-10
3.95143e-10
3.94249e-10
3.93794e-10
3.93757e-10
3.94149e-10
3.94954e-10
3.9616e-10
3.97747e-10
3.99692e-10
4.01967e-10
4.04538e-10
4.07367e-10
4.10413e-10
4.13633e-10
4.16983e-10
4.20418e-10
4.23895e-10
4.27374e-10
4.30816e-10
4.34187e-10
)
;

boundaryField
{
    bc0
    {
        type            zeroGradient;
    }
    bc1
    {
        type            zeroGradient;
    }
    bc2
    {
        type            zeroGradient;
    }
    bc3
    {
        type            zeroGradient;
    }
    top
    {
        type            zeroGradient;
    }
    bottom
    {
        type            zeroGradient;
    }
}


// ************************************************************************* //
