/*--------------------------------*- C++ -*----------------------------------*\
  =========                 |
  \\      /  F ield         | OpenFOAM: The Open Source CFD Toolbox
   \\    /   O peration     | Website:  https://openfoam.org
    \\  /    A nd           | Version:  6
     \\/     M anipulation  |
\*---------------------------------------------------------------------------*/
FoamFile
{
    version     2.0;
    format      ascii;
    class       volScalarField;
    location    "691200";
    object      Cg1;
}
// * * * * * * * * * * * * * * * * * * * * * * * * * * * * * * * * * * * * * //

dimensions      [1 -3 0 0 0 0 0];

internalField   nonuniform List<scalar> 
184
(
0.000874926
0.000874926
0.000874946
0.00087772
0.000920535
0.00149204
0.00644707
0.0241398
0.050247
0.0637697
0.0724658
0.0786471
0.0831636
0.0865523
0.0891652
0.0912343
0.0929145
0.0943105
0.0954948
0.0965186
0.0974184
0.0982213
0.0989471
0.0996111
0.100225
0.100798
0.101337
0.101752
0.103079
0.104255
0.10538
0.10646
0.107496
0.108493
0.109451
0.110374
0.111264
0.112122
0.11295
0.113749
0.114521
0.115267
0.115988
0.116686
0.11736
0.118012
0.118643
0.119253
0.119844
0.120416
0.12097
0.121506
0.122026
0.122528
0.123015
0.123487
0.123944
0.124387
0.124815
0.125231
0.125633
0.126023
0.126401
0.126768
0.127122
0.127466
0.127799
0.128122
0.128436
0.128745
0.129036
0.129319
0.129605
0.129862
0.130114
0.130366
0.130616
0.130829
0.127176
0.123296
0.119511
0.115823
0.11223
0.108732
0.105326
0.10201
0.0987828
0.0956423
0.0925867
0.0896143
0.0867233
0.0839122
0.0811792
0.0785229
0.0759415
0.0734336
0.0709976
0.068632
0.0663354
0.0641062
0.0619431
0.0598446
0.0578094
0.055836
0.0539231
0.0520694
0.0502736
0.0485343
0.0468503
0.0452204
0.0436434
0.042118
0.0406431
0.0392175
0.0378401
0.0365098
0.0352255
0.0339861
0.0327906
0.0316379
0.0305271
0.0294571
0.028427
0.0274359
0.026483
0.0255672
0.0246878
0.0238439
0.0230348
0.0222596
0.0215176
0.020808
0.0201303
0.0194836
0.018867
0.0182725
0.0176781
0.0170427
0.0163457
0.0155987
0.0148089
0.0139875
0.0131471
0.0123002
0.0114584
0.0106322
0.00983025
0.00905975
0.00832616
0.00763339
0.006984
0.00637932
0.00581964
0.00530445
0.00483257
0.0044023
0.00401158
0.00365813
0.00333949
0.00305313
0.00279653
0.00256722
0.00236277
0.00218091
0.00201944
0.00187633
0.00174969
0.00163774
0.00153886
0.00145158
0.00137454
0.00130649
0.00124632
0.00119301
0.00114565
0.0011034
0.00106552
0.0010314
0.00100032
0.000971835
0.000945448
0.000920739
0.000897336
0.000874925
)
;

boundaryField
{
    bc0
    {
        type            zeroGradient;
    }
    bc1
    {
        type            zeroGradient;
    }
    bc2
    {
        type            zeroGradient;
    }
    bc3
    {
        type            zeroGradient;
    }
    top
    {
        type            zeroGradient;
    }
    bottom
    {
        type            zeroGradient;
    }
}


// ************************************************************************* //
