/*--------------------------------*- C++ -*----------------------------------*\
  =========                 |
  \\      /  F ield         | OpenFOAM: The Open Source CFD Toolbox
   \\    /   O peration     | Website:  https://openfoam.org
    \\  /    A nd           | Version:  6
     \\/     M anipulation  |
\*---------------------------------------------------------------------------*/
FoamFile
{
    version     2.0;
    format      ascii;
    class       volScalarField;
    location    "691200";
    object      Cg3;
}
// * * * * * * * * * * * * * * * * * * * * * * * * * * * * * * * * * * * * * //

dimensions      [1 -3 0 0 0 0 0];

internalField   nonuniform List<scalar> 
184
(
0.199841
0.199841
0.199825
0.198641
0.185958
0.126684
0.0635629
0.0245258
0.000394524
4.07409e-76
1.81682e-05
1.53196e-05
1.32689e-05
1.14602e-05
9.89376e-06
8.54343e-06
7.37206e-06
6.34528e-06
5.43487e-06
4.61851e-06
3.87881e-06
3.20217e-06
2.57768e-06
1.99905e-06
1.45699e-06
9.4622e-07
4.63279e-07
3.10086e-75
8.05882e-07
1.57147e-06
2.31005e-06
3.01615e-06
3.69828e-06
4.35674e-06
4.99353e-06
5.61024e-06
6.2082e-06
6.78861e-06
7.35247e-06
7.9007e-06
8.43407e-06
8.95328e-06
9.45896e-06
9.95164e-06
1.04318e-05
1.09e-05
1.13566e-05
1.18019e-05
1.22365e-05
1.26606e-05
1.30747e-05
1.34792e-05
1.38745e-05
1.42612e-05
1.46397e-05
1.50106e-05
1.53746e-05
1.57322e-05
1.60841e-05
1.64309e-05
1.67728e-05
1.71097e-05
1.7441e-05
1.77651e-05
1.80803e-05
1.83887e-05
1.87101e-05
1.9126e-05
1.71196e-05
8.2985e-06
1.3291e-05
1.50936e-05
2.06006e-77
1.23596e-05
1.85845e-05
1.74026e-05
5.90216e-06
1.98023e-05
0.00460744
0.00950804
0.0143133
0.0190202
0.0236285
0.0281396
0.0325546
0.0368748
0.0411015
0.0452363
0.0492804
0.0532351
0.0571018
0.0608818
0.0645762
0.0681863
0.0717133
0.0751584
0.0785227
0.0818073
0.0850133
0.0881419
0.0911941
0.0941711
0.0970738
0.0999034
0.102661
0.105347
0.107963
0.110511
0.11299
0.115402
0.117747
0.120028
0.122244
0.124397
0.126487
0.128516
0.130484
0.132393
0.134243
0.136034
0.137768
0.139446
0.141069
0.142636
0.14415
0.14561
0.147018
0.148374
0.149679
0.150933
0.152138
0.153294
0.154401
0.15546
0.156472
0.157447
0.158431
0.159484
0.160634
0.161883
0.163223
0.16464
0.166118
0.167637
0.169183
0.170738
0.172289
0.173823
0.175328
0.176797
0.178221
0.179595
0.180916
0.182179
0.183384
0.18453
0.185617
0.186645
0.187615
0.18853
0.189392
0.190202
0.190963
0.191678
0.192349
0.192979
0.19357
0.194125
0.194647
0.195137
0.195598
0.196033
0.196444
0.196832
0.197199
0.197548
0.197879
0.198196
0.198498
0.198787
0.199065
0.199333
0.199591
0.19984
)
;

boundaryField
{
    bc0
    {
        type            zeroGradient;
    }
    bc1
    {
        type            zeroGradient;
    }
    bc2
    {
        type            zeroGradient;
    }
    bc3
    {
        type            zeroGradient;
    }
    top
    {
        type            zeroGradient;
    }
    bottom
    {
        type            zeroGradient;
    }
}


// ************************************************************************* //
