/*--------------------------------*- C++ -*----------------------------------*\
  =========                 |
  \\      /  F ield         | OpenFOAM: The Open Source CFD Toolbox
   \\    /   O peration     | Website:  https://openfoam.org
    \\  /    A nd           | Version:  6
     \\/     M anipulation  |
\*---------------------------------------------------------------------------*/
FoamFile
{
    version     2.0;
    format      ascii;
    class       volScalarField;
    location    "691200";
    object      Cw1;
}
// * * * * * * * * * * * * * * * * * * * * * * * * * * * * * * * * * * * * * //

dimensions      [0 -3 0 0 1 0 0];

internalField   nonuniform List<scalar> 
184
(
0.000431363
0.000431363
0.00043135
0.000431124
0.000431216
0.000432013
0.000433287
0.000434809
0.000436791
0.000437989
0.00043847
0.000438944
0.000439297
0.000439567
0.000439763
0.000439943
0.000440062
0.00044019
0.000440269
0.000440369
0.000440421
0.000440505
0.000440554
0.000441007
0.000450393
0.000632026
0.00304724
0.0166013
0.00228441
0.000550166
0.000445237
0.000441231
0.000441207
0.000441253
0.000441346
0.000441391
0.000441478
0.000441519
0.000441601
0.000441638
0.000441715
0.000441749
0.000441821
0.000441853
0.000441921
0.00044195
0.000442015
0.000442042
0.000442102
0.000442128
0.000442185
0.000442209
0.000442262
0.000442284
0.000442335
0.000442356
0.000442404
0.000442423
0.000442468
0.000442486
0.000442527
0.000442543
0.000442583
0.000442598
0.000442636
0.00044265
0.000442685
0.000442698
0.000442732
0.000442744
0.000442776
0.000442787
0.000443609
0.000442826
0.000442854
0.000442862
0.000442886
0.000442888
0.000442632
0.000442341
0.000442072
0.000441794
0.000441538
0.000441273
0.00044103
0.000440778
0.000440548
0.000440309
0.000440091
0.000439865
0.000439654
0.00043945
0.000439241
0.000439051
0.000438854
0.000438674
0.000438487
0.000438318
0.000438141
0.000437981
0.000437815
0.000437664
0.000437507
0.000437363
0.00043722
0.000437081
0.000436947
0.000436817
0.00043669
0.000436568
0.000436449
0.000436335
0.000436249
0.000436094
0.000436013
0.000435914
0.000435816
0.000435722
0.000435632
0.000435544
0.000435459
0.000435378
0.000435299
0.000435223
0.00043515
0.000435079
0.000435011
0.000434946
0.000434883
0.000434822
0.000434764
0.000434709
0.000434678
0.000434676
0.000435033
0.000432053
0.0004302
0.000452125
0.000455886
0.000454509
0.000452738
0.000451424
0.000450404
0.000449429
0.000448284
0.000446816
0.000444925
0.000442566
0.00043974
0.000436483
0.000432862
0.000428961
0.000424875
0.000420697
0.000416513
0.000412395
0.0004084
0.000404566
0.00040092
0.000397474
0.000394232
0.000391194
0.000388356
0.000385712
0.000383259
0.000380991
0.000378904
0.000376993
0.000375254
0.00037368
0.000372266
0.000371007
0.000369899
0.00036895
0.000368183
0.00036765
0.000367409
0.000367513
0.000368476
0.000370963
0.000376245
0.000386585
0.000405339
0.000431363
)
;

boundaryField
{
    bc0
    {
        type            zeroGradient;
    }
    bc1
    {
        type            zeroGradient;
    }
    bc2
    {
        type            zeroGradient;
    }
    bc3
    {
        type            zeroGradient;
    }
    top
    {
        type            zeroGradient;
    }
    bottom
    {
        type            zeroGradient;
    }
}


// ************************************************************************* //
