/*--------------------------------*- C++ -*----------------------------------*\
  =========                 |
  \\      /  F ield         | OpenFOAM: The Open Source CFD Toolbox
   \\    /   O peration     | Website:  https://openfoam.org
    \\  /    A nd           | Version:  6
     \\/     M anipulation  |
\*---------------------------------------------------------------------------*/
FoamFile
{
    version     2.0;
    format      ascii;
    class       volScalarField;
    location    "691200";
    object      Cw5;
}
// * * * * * * * * * * * * * * * * * * * * * * * * * * * * * * * * * * * * * //

dimensions      [0 -3 0 0 1 0 0];

internalField   nonuniform List<scalar> 
184
(
0.000461667
0.000461667
0.000461654
0.000461519
0.000463033
0.000482973
0.000651908
0.00125296
0.00213944
0.00259914
0.00289435
0.00310419
0.00325758
0.00337276
0.00346162
0.00353205
0.00358925
0.00363682
0.00367716
0.00371207
0.00374273
0.00377013
0.00379487
0.00381791
0.00384823
0.0040503
0.00648527
0.0200582
0.00578149
0.00408537
0.00401795
0.00405054
0.00408566
0.00411948
0.00415207
0.00418341
0.00421366
0.00424279
0.00427094
0.00429808
0.00432434
0.00434967
0.0043742
0.00439787
0.00442081
0.00444296
0.00446442
0.00448516
0.00450527
0.0045247
0.00454354
0.00456175
0.00457941
0.00459648
0.00461302
0.00462902
0.00464473
0.00465979
0.00467436
0.00468849
0.00470215
0.00471533
0.00472815
0.00474061
0.00475271
0.00476441
0.00477576
0.00478673
0.00479743
0.0048079
0.00481782
0.0048274
0.00483708
0.00484575
0.00485414
0.00486221
0.00486961
0.00487446
0.00475202
0.00462117
0.00449301
0.00436789
0.00424593
0.00412711
0.00401142
0.00389878
0.00378915
0.00368245
0.00357866
0.00347767
0.00337946
0.00328397
0.00319111
0.00310088
0.00301318
0.00292798
0.00284522
0.00276486
0.00268683
0.00261111
0.00253762
0.00246633
0.00239718
0.00233014
0.00226516
0.00220218
0.00214117
0.00208208
0.00202487
0.0019695
0.00191592
0.0018641
0.00181401
0.00176554
0.00171876
0.00167357
0.00162994
0.00158783
0.00154721
0.00150805
0.00147031
0.00143396
0.00139896
0.00136529
0.00133291
0.0013018
0.00127192
0.00124325
0.00121576
0.00118943
0.00116422
0.00114012
0.00111713
0.00109524
0.00107475
0.00105174
0.00102988
0.00103034
0.00101045
0.000983693
0.00095508
0.000925855
0.00089629
0.000866558
0.000836842
0.000807338
0.000778243
0.000749751
0.000722047
0.000695301
0.000669665
0.000645267
0.000622211
0.000600574
0.0005804
0.000561703
0.000544471
0.000528665
0.000514227
0.000501084
0.000489156
0.000478356
0.000468599
0.000459803
0.000451888
0.000444782
0.000438414
0.000432721
0.000427643
0.000423123
0.000419109
0.000415554
0.000412419
0.000409674
0.000407312
0.000405358
0.000403844
0.000402802
0.000402726
0.000404266
0.000408682
0.000418232
0.000436277
0.000461667
)
;

boundaryField
{
    bc0
    {
        type            zeroGradient;
    }
    bc1
    {
        type            zeroGradient;
    }
    bc2
    {
        type            zeroGradient;
    }
    bc3
    {
        type            zeroGradient;
    }
    top
    {
        type            zeroGradient;
    }
    bottom
    {
        type            zeroGradient;
    }
}


// ************************************************************************* //
