/*--------------------------------*- C++ -*----------------------------------*\
  =========                 |
  \\      /  F ield         | OpenFOAM: The Open Source CFD Toolbox
   \\    /   O peration     | Website:  https://openfoam.org
    \\  /    A nd           | Version:  6
     \\/     M anipulation  |
\*---------------------------------------------------------------------------*/
FoamFile
{
    version     2.0;
    format      ascii;
    class       volScalarField;
    location    "691200";
    object      Cw6;
}
// * * * * * * * * * * * * * * * * * * * * * * * * * * * * * * * * * * * * * //

dimensions      [0 -3 0 0 1 0 0];

internalField   nonuniform List<scalar> 
184
(
0.000299133
0.000299133
0.000299123
0.000298961
0.000298961
0.000298996
0.000299016
0.000299022
0.000299027
0.000299034
0.000299044
0.000299055
0.000299068
0.000299083
0.000299084
0.000299103
0.0002991
0.000299118
0.000299111
0.000299128
0.000299118
0.000299136
0.000299123
0.00029914
0.000299126
0.000299153
0.000299246
0.000299884
0.000299214
0.000299151
0.000299128
0.000299137
0.000299147
0.000299129
0.000299145
0.000299129
0.000299144
0.000299128
0.000299143
0.000299127
0.000299142
0.000299127
0.00029914
0.000299126
0.00029914
0.000299126
0.000299139
0.000299127
0.000299138
0.000299127
0.000299138
0.000299127
0.000299138
0.000299128
0.000299138
0.000299128
0.000299138
0.000299129
0.000299138
0.000299129
0.000299138
0.000299129
0.000299137
0.000299129
0.000299137
0.000299129
0.000299137
0.00029913
0.000299137
0.00029913
0.000299137
0.00029913
0.000299137
0.00029913
0.000299136
0.00029913
0.000299136
0.00029913
0.000299136
0.00029913
0.000299136
0.00029913
0.000299136
0.000299131
0.000299136
0.000299131
0.000299136
0.000299131
0.000299136
0.000299131
0.000299133
0.000299136
0.000299131
0.000299135
0.000299131
0.000299135
0.000299131
0.000299135
0.000299131
0.000299135
0.000299131
0.000299135
0.000299131
0.000299133
0.000299133
0.000299133
0.000299133
0.000299133
0.000299133
0.000299133
0.000299133
0.000299133
0.00029915
0.000299117
0.000299133
0.000299134
0.000299134
0.000299134
0.000299133
0.000299133
0.000299133
0.000299133
0.000299133
0.000299133
0.000299133
0.000299133
0.000299133
0.000299133
0.000299133
0.000299133
0.000299133
0.000299133
0.000299148
0.000299182
0.000299463
0.000297431
0.00029618
0.000311403
0.000314046
0.000313133
0.000311951
0.000311087
0.000310429
0.000309802
0.00030906
0.000308093
0.000306835
0.000305252
0.000303344
0.000301139
0.00029868
0.000296028
0.000293246
0.0002904
0.000287549
0.000284743
0.000282021
0.000279411
0.00027693
0.000274586
0.000272384
0.000270323
0.000268399
0.000266609
0.000264951
0.00026342
0.000262014
0.000260729
0.000259562
0.000258508
0.000257564
0.000256725
0.00025599
0.000255363
0.000254862
0.000254521
0.000254382
0.000254482
0.000255178
0.000256934
0.000260636
0.000267862
0.000280955
0.000299133
)
;

boundaryField
{
    bc0
    {
        type            zeroGradient;
    }
    bc1
    {
        type            zeroGradient;
    }
    bc2
    {
        type            zeroGradient;
    }
    bc3
    {
        type            zeroGradient;
    }
    top
    {
        type            zeroGradient;
    }
    bottom
    {
        type            zeroGradient;
    }
}


// ************************************************************************* //
