/*--------------------------------*- C++ -*----------------------------------*\
  =========                 |
  \\      /  F ield         | OpenFOAM: The Open Source CFD Toolbox
   \\    /   O peration     | Website:  https://openfoam.org
    \\  /    A nd           | Version:  6
     \\/     M anipulation  |
\*---------------------------------------------------------------------------*/
FoamFile
{
    version     2.0;
    format      ascii;
    class       volScalarField;
    location    "691200";
    object      Cw8;
}
// * * * * * * * * * * * * * * * * * * * * * * * * * * * * * * * * * * * * * //

dimensions      [0 -3 0 0 1 0 0];

internalField   nonuniform List<scalar> 
184
(
0.00087567
0.00087567
0.000875682
0.000876979
0.000890838
0.000955165
0.00101878
0.001042
0.00103965
0.00102386
0.0010095
0.000995445
0.000981637
0.000968327
0.000955703
0.00094384
0.000932743
0.000922377
0.000912685
0.00090361
0.000895093
0.000887081
0.000879525
0.000872381
0.000865608
0.000859159
0.000852799
0.000845573
0.000852145
0.000857192
0.000861861
0.000866315
0.000870573
0.00087465
0.000878556
0.000882299
0.000885889
0.000889332
0.000892633
0.0008958
0.000898838
0.000901751
0.000904544
0.000907222
0.000909789
0.000912249
0.000914606
0.000916864
0.000919026
0.000921095
0.000923075
0.000924968
0.000926778
0.000928505
0.000930152
0.000931727
0.000933271
0.000934714
0.000936081
0.000937391
0.000938629
0.000939798
0.000940919
0.000941996
0.000943022
0.000943996
0.000944919
0.000945795
0.000946625
0.000947411
0.000948155
0.000948857
0.000949517
0.000950128
0.000950679
0.00095114
0.000951439
0.000951415
0.000950777
0.000949871
0.000948847
0.000947774
0.00094668
0.000945579
0.000944478
0.00094338
0.000942286
0.000941198
0.000940115
0.00093904
0.000937971
0.00093691
0.000935857
0.000934813
0.000933777
0.000932751
0.000931735
0.000930728
0.000929732
0.000928748
0.000927774
0.000926812
0.000925862
0.000924924
0.000924
0.000923088
0.000922189
0.000921305
0.000920434
0.000919578
0.000918736
0.000917909
0.000917097
0.000916301
0.00091552
0.000914755
0.000914006
0.000913273
0.000912557
0.000911857
0.000911175
0.000910509
0.00090986
0.000909229
0.000908615
0.000908019
0.00090744
0.00090688
0.000906338
0.000905815
0.000905313
0.000904834
0.000904384
0.000903974
0.00090363
0.000903393
0.00090319
0.000902821
0.00090231
0.000901691
0.000900996
0.000900246
0.000899457
0.000898638
0.000897795
0.000896935
0.000896063
0.000895183
0.000894301
0.000893421
0.000892547
0.000891683
0.000890833
0.00089
0.000889187
0.000888395
0.000887627
0.000886883
0.000886166
0.000885476
0.000884812
0.000884176
0.000883567
0.000882985
0.000882429
0.000881898
0.000881393
0.00088091
0.000880451
0.000880014
0.000879597
0.000879199
0.00087882
0.000878458
0.000878113
0.000877782
0.000877466
0.000877162
0.000876871
0.000876592
0.000876323
0.000876069
0.00087584
0.00087567
)
;

boundaryField
{
    bc0
    {
        type            zeroGradient;
    }
    bc1
    {
        type            zeroGradient;
    }
    bc2
    {
        type            zeroGradient;
    }
    bc3
    {
        type            zeroGradient;
    }
    top
    {
        type            zeroGradient;
    }
    bottom
    {
        type            zeroGradient;
    }
}


// ************************************************************************* //
