/*--------------------------------*- C++ -*----------------------------------*\
  =========                 |
  \\      /  F ield         | OpenFOAM: The Open Source CFD Toolbox
   \\    /   O peration     | Website:  https://openfoam.org
    \\  /    A nd           | Version:  6
     \\/     M anipulation  |
\*---------------------------------------------------------------------------*/
FoamFile
{
    version     2.0;
    format      ascii;
    class       volScalarField;
    location    "691200";
    object      hp;
}
// * * * * * * * * * * * * * * * * * * * * * * * * * * * * * * * * * * * * * //

dimensions      [0 1 0 0 0 0 0];

internalField   nonuniform List<scalar> 
184
(
0.02
0.0100004
7.04856e-07
-0.00999886
-0.0199983
-0.0299976
-0.0399967
-0.0499955
-0.0599938
-0.0699917
-0.0799889
-0.0899852
-0.0999804
-0.109974
-0.119966
-0.129956
-0.139943
-0.149927
-0.159907
-0.169883
-0.179853
-0.189818
-0.199776
-0.209727
-0.21967
-0.229605
-0.23953
-0.249446
-0.259352
-0.269248
-0.279135
-0.289014
-0.298884
-0.308749
-0.318609
-0.328466
-0.338322
-0.34818
-0.358043
-0.367912
-0.377791
-0.387681
-0.397584
-0.407503
-0.417437
-0.427387
-0.437353
-0.447335
-0.457331
-0.467339
-0.477357
-0.487385
-0.497421
-0.507462
-0.517509
-0.527559
-0.537612
-0.547666
-0.557721
-0.567777
-0.577833
-0.587888
-0.597944
-0.607999
-0.618054
-0.628108
-0.638162
-0.648216
-0.658269
-0.668322
-0.678375
-0.688428
-0.69848
-0.708533
-0.718585
-0.728637
-0.738689
-0.74874
-0.758792
-0.768843
-0.778895
-0.788946
-0.798997
-0.809047
-0.819097
-0.829147
-0.839195
-0.849243
-0.85929
-0.869336
-0.879382
-0.889428
-0.899473
-0.909519
-0.919566
-0.929613
-0.939661
-0.949709
-0.959756
-0.969802
-0.979844
-0.989883
-0.999916
-1.00994
-1.01997
-1.02998
-1.04
-1.05002
-1.06005
-1.07011
-1.08018
-1.09028
-1.10041
-1.11055
-1.12069
-1.1308
-1.14089
-1.15094
-1.16097
-1.17099
-1.181
-1.191
-1.201
-1.211
-1.221
-1.231
-1.241
-1.25101
-1.26103
-1.27106
-1.28113
-1.29125
-1.30139
-1.31138
-1.31555
-1.20398
-0.825558
-0.577463
-0.446792
-0.371575
-0.324117
-0.292036
-0.269246
-0.252475
-0.239818
-0.2301
-0.222554
-0.21666
-0.212053
-0.208471
-0.205718
-0.203646
-0.202143
-0.20112
-0.200509
-0.200254
-0.200312
-0.200648
-0.201234
-0.202047
-0.203071
-0.204291
-0.205698
-0.207284
-0.209046
-0.210982
-0.213091
-0.215377
-0.217845
-0.220502
-0.223358
-0.226426
-0.229721
-0.233264
-0.237077
-0.24119
-0.245636
-0.250459
-0.255709
-0.261453
-0.267769
-0.274762
-0.282561
-0.291343
)
;

boundaryField
{
    bc0
    {
        type            fixedGradient;
        gradient        uniform -1;
    }
    bc1
    {
        type            zeroGradient;
    }
    bc2
    {
        type            zeroGradient;
    }
    bc3
    {
        type            zeroGradient;
    }
    top
    {
        type            zeroGradient;
    }
    bottom
    {
        type            zeroGradient;
    }
}


// ************************************************************************* //
