/*--------------------------------*- C++ -*----------------------------------*\
  =========                 |
  \\      /  F ield         | OpenFOAM: The Open Source CFD Toolbox
   \\    /   O peration     | Website:  https://openfoam.org
    \\  /    A nd           | Version:  6
     \\/     M anipulation  |
\*---------------------------------------------------------------------------*/
FoamFile
{
    version     2.0;
    format      ascii;
    class       surfaceScalarField;
    location    "691200";
    object      phiw;
}
// * * * * * * * * * * * * * * * * * * * * * * * * * * * * * * * * * * * * * //

dimensions      [0 3 -1 0 0 0 0];

internalField   nonuniform List<scalar> 
183
(
-5.78765e-07
-8.64538e-11
-8.31186e-11
-8.32266e-11
-8.32816e-11
-8.32766e-11
-8.32098e-11
-8.30827e-11
-8.28976e-11
-8.26557e-11
-8.23561e-11
-8.19952e-11
-8.15666e-11
-8.10614e-11
-8.04688e-11
-7.97759e-11
-7.89686e-11
-7.80318e-11
-7.69499e-11
-7.57069e-11
-7.42876e-11
-7.26774e-11
-7.08634e-11
-6.88348e-11
-6.65837e-11
-6.4106e-11
-6.14018e-11
-5.84762e-11
-5.53399e-11
-5.20097e-11
-4.85086e-11
-4.48659e-11
-4.11168e-11
-3.73018e-11
-3.3466e-11
-2.96575e-11
-2.59258e-11
-2.23202e-11
-1.88877e-11
-1.5671e-11
-1.27067e-11
-1.00235e-11
-7.64105e-12
-5.56942e-12
-3.80862e-12
-2.34905e-12
-1.17247e-12
-2.65079e-13
4.35335e-13
9.46646e-13
1.29636e-12
1.51714e-12
1.63543e-12
1.67557e-12
1.65898e-12
1.60363e-12
1.52397e-12
1.43106e-12
1.33296e-12
1.23516e-12
1.14116e-12
1.05292e-12
9.71361e-13
8.96687e-13
8.28677e-13
7.66888e-13
7.10776e-13
6.59781e-13
6.13367e-13
5.71045e-13
5.32378e-13
4.9698e-13
4.6451e-13
4.3467e-13
4.07194e-13
3.81843e-13
3.58399e-13
3.36659e-13
3.16428e-13
2.9751e-13
2.79713e-13
2.62843e-13
2.46722e-13
2.31206e-13
2.16217e-13
2.01775e-13
1.88024e-13
1.75218e-13
1.63668e-13
1.53653e-13
1.45312e-13
1.38559e-13
1.33074e-13
1.28353e-13
1.23817e-13
1.18901e-13
1.13118e-13
1.06071e-13
9.74728e-14
8.71998e-14
7.54074e-14
6.26608e-14
5.00119e-14
3.89732e-14
3.13971e-14
2.93092e-14
3.46731e-14
4.89206e-14
7.20538e-14
1.01457e-13
1.31202e-13
1.53022e-13
1.59418e-13
1.47502e-13
1.20826e-13
8.75393e-14
5.61436e-14
3.19489e-14
1.61853e-14
7.32991e-15
2.98541e-15
1.11758e-15
4.52337e-16
3.97654e-16
8.83932e-16
2.33135e-15
5.76018e-15
1.28506e-14
2.55004e-14
4.43471e-14
6.57209e-14
5.61867e-14
-7.63722e-13
-1.75465e-11
-1.22844e-10
-1.18777e-09
-5.26868e-09
-9.71955e-09
-1.27225e-08
-1.49436e-08
-1.66368e-08
-1.7918e-08
-1.88631e-08
-1.95301e-08
-1.99663e-08
-2.02109e-08
-2.02958e-08
-2.02477e-08
-2.00888e-08
-1.98373e-08
-1.95087e-08
-1.91155e-08
-1.86687e-08
-1.81772e-08
-1.76486e-08
-1.70893e-08
-1.65048e-08
-1.58998e-08
-1.52781e-08
-1.46433e-08
-1.39983e-08
-1.33456e-08
-1.26873e-08
-1.20256e-08
-1.1362e-08
-1.06981e-08
-1.00353e-08
-9.37474e-09
-8.71766e-09
-8.06509e-09
-7.41804e-09
-6.77748e-09
-6.14435e-09
-5.51958e-09
-4.90414e-09
-4.29901e-09
-3.70519e-09
-3.1238e-09
-2.556e-09
-2.00309e-09
-1.46652e-09
-9.47911e-10
-4.49118e-10
)
;

boundaryField
{
    bc0
    {
        type            calculated;
        value           uniform 0;
    }
    bc1
    {
        type            calculated;
        value           uniform 0;
    }
    bc2
    {
        type            calculated;
        value           uniform 2.31482e-06;
    }
    bc3
    {
        type            calculated;
        value           uniform 0;
    }
    top
    {
        type            calculated;
        value           uniform 0;
    }
    bottom
    {
        type            calculated;
        value           uniform 0;
    }
}


// ************************************************************************* //
