/*--------------------------------*- C++ -*----------------------------------*\
  =========                 |
  \\      /  F ield         | OpenFOAM: The Open Source CFD Toolbox
   \\    /   O peration     | Website:  https://openfoam.org
    \\  /    A nd           | Version:  6
     \\/     M anipulation  |
\*---------------------------------------------------------------------------*/
FoamFile
{
    version     2.0;
    format      ascii;
    class       volVectorField;
    location    "691200";
    object      Uw;
}
// * * * * * * * * * * * * * * * * * * * * * * * * * * * * * * * * * * * * * //

dimensions      [0 1 -1 0 0 0 0];

internalField   nonuniform List<vector> 
184
(
(0 -1.44679e-06 0)
(0 -2.89426e-07 0)
(0 -8.47862e-11 0)
(0 -8.31726e-11 0)
(0 -8.32541e-11 0)
(0 -8.32791e-11 0)
(0 -8.32432e-11 0)
(0 -8.31463e-11 0)
(0 -8.29901e-11 0)
(0 -8.27766e-11 0)
(0 -8.25059e-11 0)
(0 -8.21757e-11 0)
(0 -8.17809e-11 0)
(0 -8.1314e-11 0)
(0 -8.07651e-11 0)
(0 -8.01223e-11 0)
(0 -7.93722e-11 0)
(0 -7.85002e-11 0)
(0 -7.74908e-11 0)
(0 -7.63284e-11 0)
(0 -7.49973e-11 0)
(0 -7.34825e-11 0)
(0 -7.17704e-11 0)
(0 -6.98491e-11 0)
(0 -6.77092e-11 0)
(0 -6.53449e-11 0)
(0 -6.27539e-11 0)
(0 -5.9939e-11 0)
(0 -5.6908e-11 0)
(0 -5.36748e-11 0)
(0 -5.02592e-11 0)
(0 -4.66873e-11 0)
(0 -4.29913e-11 0)
(0 -3.92093e-11 0)
(0 -3.53839e-11 0)
(0 -3.15618e-11 0)
(0 -2.77916e-11 0)
(0 -2.4123e-11 0)
(0 -2.0604e-11 0)
(0 -1.72794e-11 0)
(0 -1.41889e-11 0)
(0 -1.13651e-11 0)
(0 -8.83226e-12 0)
(0 -6.60524e-12 0)
(0 -4.68902e-12 0)
(0 -3.07883e-12 0)
(0 -1.76076e-12 0)
(0 -7.18776e-13 0)
(0 8.51282e-14 0)
(0 6.9099e-13 0)
(0 1.1215e-12 0)
(0 1.40675e-12 0)
(0 1.57629e-12 0)
(0 1.6555e-12 0)
(0 1.66728e-12 0)
(0 1.6313e-12 0)
(0 1.5638e-12 0)
(0 1.47752e-12 0)
(0 1.38201e-12 0)
(0 1.28406e-12 0)
(0 1.18816e-12 0)
(0 1.09704e-12 0)
(0 1.01214e-12 0)
(0 9.34024e-13 0)
(0 8.62682e-13 0)
(0 7.97783e-13 0)
(0 7.38832e-13 0)
(0 6.85279e-13 0)
(0 6.36574e-13 0)
(0 5.92206e-13 0)
(0 5.51712e-13 0)
(0 5.14679e-13 0)
(0 4.80745e-13 0)
(0 4.4959e-13 0)
(0 4.20932e-13 0)
(0 3.94518e-13 0)
(0 3.70121e-13 0)
(0 3.47529e-13 0)
(0 3.26544e-13 0)
(0 3.06969e-13 0)
(0 2.88611e-13 0)
(0 2.71278e-13 0)
(0 2.54783e-13 0)
(0 2.38964e-13 0)
(0 2.23711e-13 0)
(0 2.08996e-13 0)
(0 1.949e-13 0)
(0 1.81621e-13 0)
(0 1.69443e-13 0)
(0 1.5866e-13 0)
(0 1.49482e-13 0)
(0 1.41935e-13 0)
(0 1.35816e-13 0)
(0 1.30713e-13 0)
(0 1.26085e-13 0)
(0 1.21359e-13 0)
(0 1.16009e-13 0)
(0 1.09594e-13 0)
(0 1.01772e-13 0)
(0 9.23363e-14 0)
(0 8.13036e-14 0)
(0 6.90341e-14 0)
(0 5.63364e-14 0)
(0 4.44926e-14 0)
(0 3.51851e-14 0)
(0 3.03531e-14 0)
(0 3.19912e-14 0)
(0 4.17968e-14 0)
(0 6.04872e-14 0)
(0 8.67555e-14 0)
(0 1.1633e-13 0)
(0 1.42112e-13 0)
(0 1.5622e-13 0)
(0 1.5346e-13 0)
(0 1.34164e-13 0)
(0 1.04183e-13 0)
(0 7.18415e-14 0)
(0 4.40462e-14 0)
(0 2.40671e-14 0)
(0 1.17576e-14 0)
(0 5.15766e-15 0)
(0 2.0515e-15 0)
(0 7.8496e-16 0)
(0 4.24995e-16 0)
(0 6.40793e-16 0)
(0 1.60764e-15 0)
(0 4.04577e-15 0)
(0 9.30541e-15 0)
(0 1.91755e-14 0)
(0 3.49238e-14 0)
(0 5.5034e-14 0)
(0 6.09538e-14 0)
(0 -3.53768e-13 0)
(0 -9.15511e-12 0)
(0 -7.01953e-11 0)
(0 -6.55306e-10 0)
(0 -3.22822e-09 0)
(0 -7.49412e-09 0)
(0 -1.1221e-08 0)
(0 -1.3833e-08 0)
(0 -1.57902e-08 0)
(0 -1.72774e-08 0)
(0 -1.83906e-08 0)
(0 -1.91966e-08 0)
(0 -1.97482e-08 0)
(0 -2.00886e-08 0)
(0 -2.02533e-08 0)
(0 -2.02718e-08 0)
(0 -2.01683e-08 0)
(0 -1.99631e-08 0)
(0 -1.9673e-08 0)
(0 -1.93121e-08 0)
(0 -1.88921e-08 0)
(0 -1.8423e-08 0)
(0 -1.79129e-08 0)
(0 -1.73689e-08 0)
(0 -1.6797e-08 0)
(0 -1.62023e-08 0)
(0 -1.55889e-08 0)
(0 -1.49607e-08 0)
(0 -1.43208e-08 0)
(0 -1.36719e-08 0)
(0 -1.30164e-08 0)
(0 -1.23565e-08 0)
(0 -1.16938e-08 0)
(0 -1.103e-08 0)
(0 -1.03667e-08 0)
(0 -9.70501e-09 0)
(0 -9.0462e-09 0)
(0 -8.39138e-09 0)
(0 -7.74157e-09 0)
(0 -7.09776e-09 0)
(0 -6.46091e-09 0)
(0 -5.83196e-09 0)
(0 -5.21186e-09 0)
(0 -4.60157e-09 0)
(0 -4.0021e-09 0)
(0 -3.4145e-09 0)
(0 -2.8399e-09 0)
(0 -2.27955e-09 0)
(0 -1.73481e-09 0)
(0 -1.20722e-09 0)
(0 -6.98515e-10 0)
(0 -2.24559e-10 0)
)
;

boundaryField
{
    bc0
    {
        type            zeroGradient;
    }
    bc1
    {
        type            zeroGradient;
    }
    bc2
    {
        type            zeroGradient;
    }
    bc3
    {
        type            zeroGradient;
    }
    top
    {
        type            zeroGradient;
    }
    bottom
    {
        type            zeroGradient;
    }
}


// ************************************************************************* //
