/*--------------------------------*- C++ -*----------------------------------*\
  =========                 |
  \\      /  F ield         | OpenFOAM: The Open Source CFD Toolbox
   \\    /   O peration     | Website:  https://openfoam.org
    \\  /    A nd           | Version:  6
     \\/     M anipulation  |
\*---------------------------------------------------------------------------*/
FoamFile
{
    version     2.0;
    format      ascii;
    class       volScalarField;
    location    "25920000";
    object      Cw;
}
// * * * * * * * * * * * * * * * * * * * * * * * * * * * * * * * * * * * * * //

dimensions      [1 -3 0 0 0 0 0];

internalField   nonuniform List<scalar> 
11830
(
2.63978e-73
8.88243e-09
7.40961e-82
1.72147e-14
4.06387e-70
4.98906e-69
6.80751e-68
6.32788e-67
4.80321e-66
4.45538e-65
2.20423e-64
1.53387e-63
6.98285e-63
1.84334e-62
8.41757e-62
2.33814e-61
2.96611e-60
1.20232e-58
1.09096e-57
2.25468e-56
0
2.22469e-53
5.51785e-51
1.6051e-49
1.55084e-48
6.72701e-48
3.55909e-47
8.28204e-47
1.46762e-46
2.87671e-46
8.08078e-44
1.13635e-42
3.37624e-41
3.273e-40
8.27947e-40
3.16927e-39
5.01381e-39
1.16183e-37
1.59354e-36
1.758e-35
1.49338e-34
6.63788e-34
2.33342e-33
9.43347e-33
1.21235e-32
3.01785e-32
1.60613e-32
5.8018e-32
8.77687e-31
9.0469e-30
5.85651e-29
1.32917e-28
4.79597e-28
6.80761e-28
1.15432e-27
1.15187e-27
6.83723e-28
0
2.37654e-26
4.96214e-25
2.58479e-24
1.03633e-23
2.30768e-23
5.36951e-23
7.81084e-23
9.31338e-23
8.01438e-23
5.91842e-23
2.7226e-23
0
2.91692e-23
1.79597e-21
1.15783e-20
4.66906e-20
1.63116e-19
4.05503e-19
1.10316e-18
9.29759e-19
1.41865e-18
9.19207e-19
1.43707e-18
2.55782e-18
2.02548e-18
7.01297e-21
0
0
0
0
1.09394e-11
1.45605e-09
7.05785e-09
1.71102e-08
2.50715e-08
3.61932e-08
4.15732e-08
7.2605e-08
5.27905e-08
7.00628e-08
4.25986e-08
3.62872e-08
2.24905e-08
1.63239e-08
1.93084e-08
2.0949e-08
1.65397e-08
3.20308e-08
4.14221e-08
5.38724e-08
6.45206e-08
7.13403e-08
7.13763e-08
6.26275e-08
5.02541e-08
3.61952e-08
2.29982e-08
1.19263e-08
4.36264e-09
7.42523e-10
1.71403e-11
2.86319e-13
0
0
0
0
0
0
1.20832e-27
2.05293e-24
1.00311e-23
1.53013e-23
2.36112e-23
2.90386e-23
2.87926e-23
2.4641e-23
1.56039e-23
7.34512e-24
2.42276e-24
4.4226e-25
2.11778e-26
7.6984e-28
0
0
0
0
2.97013e-38
2.19672e-36
5.84949e-36
9.37884e-36
1.17732e-35
1.21801e-35
9.89381e-36
5.20094e-36
1.80085e-36
4.00848e-37
3.14694e-38
3.3954e-40
6.56523e-43
0
2.28631e-48
0
2.23231e-48
2.66339e-47
7.1404e-47
1.16473e-46
1.10333e-46
4.72058e-47
5.38648e-48
0
8.40024e-53
0
1.05637e-56
1.66957e-53
3.6114e-53
4.0013e-53
2.75339e-53
8.8574e-54
1.16874e-54
2.41574e-56
5.61458e-58
0
0
0
7.07665e-68
2.52047e-65
3.68924e-65
3.3979e-65
2.20917e-65
9.29913e-66
2.06149e-66
2.10726e-67
2.08052e-69
3.02781e-71
0
0
3.80741e-78
5.87316e-75
3.26601e-75
1.17951e-75
3.05589e-76
5.33287e-77
5.57545e-78
3.32866e-79
1.67949e-80
1.13183e-79
3.76249e-79
2.00028e-78
1.26534e-78
5.70572e-79
3.59022e-77
0
0
0
0
1.85189e-69
1.52576e-68
3.30123e-68
1.02172e-67
4.95275e-67
1.32514e-67
0
1.98222e-63
0
0
0
9.8056e-59
4.01543e-57
3.43393e-56
1.38152e-55
4.90557e-55
1.33435e-54
1.4269e-54
1.93084e-53
0
1.94524e-51
0
1.88123e-48
4.77293e-46
1.61843e-45
6.17241e-45
6.84158e-45
9.97434e-44
3.4747e-43
1.4266e-42
0
0
0
0
0
3.00798e-35
1.36864e-34
3.64958e-34
7.78754e-34
2.12049e-33
2.2235e-33
3.54639e-33
3.32037e-34
0
3.57985e-31
1.08189e-30
4.87726e-28
5.53619e-28
1.31668e-27
2.6024e-27
6.84926e-27
1.98587e-26
8.03662e-27
1.09197e-26
3.4401e-26
5.11102e-26
3.44565e-24
5.07e-23
0
0
0
9.42636e-18
2.82933e-17
2.16971e-16
1.13605e-16
1.88536e-15
6.09292e-16
5.00176e-15
2.88626e-15
1.35362e-15
1.65003e-14
6.2082e-15
6.08423e-14
3.38297e-14
4.96482e-14
4.9788e-14
8.52754e-14
8.43263e-14
7.99389e-14
7.42723e-14
6.91276e-14
6.36187e-14
5.68659e-14
5.00466e-14
3.89368e-14
2.70757e-14
2.15708e-14
5.78676e-15
1.0081e-14
4.88894e-14
8.4251e-15
2.57746e-14
1.57069e-14
3.5585e-14
2.31542e-14
2.29125e-14
2.06992e-14
1.75265e-14
1.38447e-14
1.0112e-14
6.68456e-15
3.78459e-15
1.63237e-15
6.48357e-16
2.54157e-16
9.94651e-17
3.74957e-17
1.25225e-17
3.03385e-18
1.14699e-19
0
0
0
0
3.80332e-26
1.60961e-27
9.44289e-28
6.63773e-29
4.83803e-30
2.43283e-30
1.11422e-30
5.41095e-31
2.55822e-31
1.09363e-31
4.74315e-32
2.00926e-32
7.40997e-33
1.86044e-33
4.95771e-35
0
1.53476e-35
2.78748e-35
2.38292e-35
1.65416e-35
9.3977e-36
3.98064e-36
1.48047e-36
4.10795e-37
3.05684e-38
0
0
1.71902e-42
2.28639e-41
1.85079e-41
1.00277e-41
4.4944e-42
1.72957e-42
4.94485e-43
4.26542e-44
0
0
0
8.01598e-48
1.02032e-47
5.6728e-48
2.49931e-48
9.2485e-49
2.21991e-49
2.60678e-51
0
0
0
1.58485e-54
1.41502e-54
7.82175e-55
3.30208e-55
1.14042e-55
2.0513e-56
0
0
1.8348e-61
0
1.00095e-63
3.56847e-65
7.94422e-67
2.81053e-69
1.53214e-69
1.57763e-72
2.83316e-71
2.00579e-70
2.82035e-70
2.56297e-70
2.15673e-70
2.18377e-70
1.84854e-70
1.43887e-70
5.82717e-71
1.47887e-36
9.10316e-28
3.09229e-36
1.06066e-33
1.40954e-32
0
1.2154e-33
0
5.73815e-23
3.91088e-42
1.74649e-46
2.2608e-27
1.49303e-23
3.21161e-46
2.05478e-37
2.4397e-31
2.27752e-54
0
1.12063e-20
4.78858e-48
2.10483e-55
1.9274e-23
0
5.13771e-44
1.90726e-18
2.83609e-54
0
1.75379e-16
0
0
2.63375e-17
1.26183e-48
1.40254e-55
2.38132e-15
0
0
1.61835e-09
0
1.28764e-15
0
2.12968e-14
1.45608e-65
5.5521e-62
6.2022e-09
0
7.05255e-15
1.58777e-07
3.0362e-62
0
5.80153e-26
0
0
1.22474e-29
7.07905e-36
0
1.32572e-07
0
2.86534e-14
0
8.2764e-27
2.01814e-46
6.18901e-23
3.82724e-34
6.53108e-32
1.64099e-35
3.39135e-36
0
4.92611e-44
1.68335e-75
1.77809e-07
1.91824e-14
1.38492e-69
0
1.92537e-07
9.07725e-15
1.77906e-64
1.34526e-51
6.22043e-23
0
3.55623e-56
0
1.87113e-40
6.00345e-19
8.29678e-53
0
8.9859e-19
7.03051e-55
1.18752e-15
4.47623e-18
1.00512e-49
0
4.41276e-47
1.93933e-76
8.6788e-15
9.32758e-08
1.57095e-69
1.35173e-78
9.75417e-08
6.67674e-15
6.62489e-67
7.0853e-08
3.65407e-68
0
0
4.5346e-24
9.74434e-42
6.55687e-34
1.26172e-35
3.28534e-28
5.47674e-36
5.53602e-38
2.02834e-33
2.73193e-28
0
3.23935e-65
7.32871e-67
1.09451e-14
0
4.61077e-15
2.8642e-60
0
4.91155e-23
2.45141e-14
3.00299e-14
1.37835e-74
8.57469e-15
3.0937e-63
1.89795e-07
0
5.86791e-71
2.08279e-07
5.25295e-08
0
0
5.41901e-48
1.10027e-22
4.19362e-43
0
5.08663e-27
1.65412e-25
0
5.96606e-46
2.48736e-48
1.52098e-19
1.25799e-16
1.07067e-50
2.63227e-33
4.38801e-32
0
2.37117e-35
0
2.47006e-31
1.56918e-32
5.36996e-53
0
4.6985e-36
6.974e-40
0
2.60812e-64
0
9.04754e-25
4.05521e-45
6.25483e-43
0
7.10582e-78
2.67248e-15
4.49006e-08
1.4019e-69
3.08754e-37
8.45739e-36
1.3353e-35
3.88575e-35
4.38883e-35
1.0464e-34
5.84769e-35
9.83704e-35
9.96819e-36
0
0
0
5.52086e-32
6.39839e-31
0
3.41538e-30
1.52142e-29
4.27716e-29
8.63838e-29
2.1006e-28
3.11597e-28
7.03296e-28
8.77853e-28
2.0591e-27
2.29379e-27
6.22396e-27
5.27655e-27
1.50456e-26
1.57738e-27
6.49409e-27
4.43318e-26
4.04101e-27
1.16651e-25
1.90311e-27
3.11593e-25
1.46549e-25
8.47233e-25
0
2.23336e-24
1.78472e-24
5.59561e-24
9.04683e-26
9.73631e-24
1.54329e-24
2.56449e-23
0
2.94795e-23
0
0
0
0
0
0
0
0
0
0
0
0
1.16783e-14
0
0
0
0
0
0
7.10879e-08
2.01414e-07
1.18342e-09
4.99286e-07
2.83672e-08
1.1511e-06
3.72264e-06
7.50125e-06
2.52432e-06
1.47211e-05
3.2018e-05
5.89976e-05
2.81829e-05
0.000106587
0.000186875
0.000323702
0.000188893
0.000551091
0.000834781
0.00137531
0.00188678
0.00302131
0.00222937
0.00476278
0.00595177
0.00914699
0.00739097
0.0138416
0.0112901
0.0206226
0.0236277
0.0343923
0.0302504
0.049294
0.0529188
0.074178
0.06955
0.102378
0.104543
0.141552
0.139072
0.139116
0.188663
0.186086
0.247428
0.244966
0.31922
0.317276
0.405037
0.404201
0.505167
0.506832
1.40743e-25
0.618721
0.6256
0.744372
0.685164
0.759578
0.612993
0.747176
0.578292
0.709271
0.802657
0.695066
0.519962
0.796703
0.662834
0.642503
0.442827
0.745211
0.589181
0.551679
0.355495
0.645762
0.482468
0.446822
0.513912
0.361434
0.267703
0.339781
0.37272
0.245196
0.18802
0.241296
0.244036
0.150463
0.122268
0.14524
0.0830375
0.158943
0.072893
0.0768165
0.0401241
0.0962356
0.0351331
0.0163458
0.0392844
0.0528809
0.013269
0.00522362
0.0068321
0.001728
0.00247956
0.000430299
0.000730007
5.78908e-05
0.000146378
0
7.03357e-06
0
0
0
0
0
3.4225e-11
1.6345e-14
0
0
1.49209e-14
1.9826e-17
0
0
0
1.31775e-23
0.0187366
0
0.0258762
0.0697694
0
0
3.38646e-20
0.0349634
0.0902402
0.00763874
6.44794e-20
9.14494e-20
0.0462392
0.114438
0.0598741
0.142309
1.22421e-19
1.06124e-19
0.0759318
0.173549
1.17663e-19
8.11425e-20
0.0943334
0.207573
0.114828
0.243499
8.01266e-20
4.45151e-20
0.0459238
0.136973
0.280163
0.160133
0.316162
3.92538e-20
1.70723e-20
2.10258e-20
5.99143e-21
8.25684e-21
1.52181e-21
0.183493
0.349928
3.95964e-21
2.51364e-21
0.206099
0.37982
1.9704e-22
0.226907
0.404248
4.92567e-22
0.24486
0.421804
0
0.12419
0.258972
0.43157
0.0037599
1.44751e-23
0.268445
0.433166
0.640681
0.625902
0.856244
0.811928
1.03191
0.950295
1.12707
1.00885
1.12669
0.85801
0.987513
1.05418
0.00519698
0.00159052
0.000977188
0.000160556
6.8279e-05
0
0
0
0
3.14471e-11
1.2641e-11
6.68769e-14
0
0
0
1.48709e-18
0
2.55686e-19
1.00705e-19
6.30024e-19
5.77651e-19
2.18553e-20
7.33413e-19
5.73911e-19
4.74672e-19
3.38518e-19
1.98222e-19
1.20582e-19
0.901644
0.916504
0
4.69657e-20
2.34202e-20
8.60776e-20
4.24379e-21
1.17756e-21
0
0.764438
0.738537
0
0
0
0
0
0
0
0.596149
0.536128
0
6.22299e-24
0
1.35198e-22
1.56537e-29
1.85917e-29
1.99886e-23
1.36678e-23
0.417805
0.3471
0.470958
2.96886e-29
2.50651e-29
1.19427e-23
6.04384e-24
1.92074e-23
2.79269e-24
1.00197e-24
2.46354e-24
2.86459e-25
2.46968e-29
1.79244e-29
1.44283e-27
0
6.47697e-26
0
2.36355e-27
3.29822e-27
2.28802e-27
2.7542e-27
1.79314e-27
9.22872e-28
1.7756e-27
4.47809e-28
1.16014e-28
3.91442e-29
2.11793e-28
1.05662e-29
0
0.318222
0.363991
9.76957e-29
0
1.15656e-29
6.93875e-30
0
0.236786
0.275054
2.60429e-30
1.1684e-30
1.77336e-29
0
9.24157e-35
1.18891e-31
7.54672e-34
0.172044
0.203119
0
0
0
0
0
0
1.00744e-34
2.43687e-34
1.05746e-20
0.121992
0.146522
0
0
0
0
0
0
0
0
0
0
0
0
0
0
0
0
0
0
0
0
0
0
0
2.54912e-08
0
1.29501e-07
0
2.50795e-07
2.25825e-08
3.78492e-07
6.09679e-08
4.89671e-07
0
1.03852e-07
5.72743e-07
1.42996e-07
6.19948e-07
1.7353e-07
6.37873e-07
1.91574e-07
6.19309e-07
1.99594e-07
5.67946e-07
1.95724e-07
5.00114e-07
1.30036e-06
1.07767e-06
2.59094e-06
2.05296e-06
8.69683e-07
1.59043e-06
3.53781e-06
2.6488e-06
1.20609e-06
1.94536e-06
4.06279e-06
2.90071e-06
1.40248e-06
2.03558e-06
5.00711e-08
9.93142e-07
1.40471e-06
2.75533e-06
1.85683e-06
9.53668e-07
1.23203e-06
2.30162e-06
1.49471e-06
2.68211e-06
1.70691e-06
9.56627e-07
1.07125e-06
1.84033e-06
1.13489e-06
6.63278e-07
6.91312e-07
4.05119e-07
4.16622e-07
2.44347e-07
2.48012e-07
1.89034e-06
1.45614e-07
1.45808e-07
8.58636e-08
8.45778e-08
1.38122e-07
7.86907e-08
4.84382e-08
4.42697e-08
6.91084e-08
2.73918e-08
2.45997e-08
1.80383e-06
1.52996e-08
1.35057e-08
1.64723e-34
1.66554e-34
2.80582e-34
1.30311e-34
8.44343e-09
0
0
0.0843647
0.0638277
0.103201
2.32309e-34
7.32836e-09
4.6058e-09
7.05817e-35
3.6134e-35
0.0691699
0
8.34094e-08
0.0420178
0.0283375
1.42204e-38
0
0.452163
0.269213
1.69611e-35
4.54275e-36
3.93163e-09
2.48456e-09
2.80258e-09
1.82476e-19
0.450233
0.0175484
0.0101871
0
0
1.52118e-09
0.356813
0.194049
2.43007e-07
1.32621e-09
1.53435e-36
0
8.17385e-10
1.65348e-09
0.0058019
0.00269114
0
1.24601e-42
1.05021e-38
0.262424
0.129124
0.272808
6.0172e-09
7.65714e-35
0
2.1902e-24
0
7.01039e-10
4.3524e-10
0
0
0
0
0.178918
0.0785377
0
0.00133747
0.000401534
0.00315907
1.17804e-42
2.02024e-40
0
0.536387
0
4.29583e-42
3.67364e-10
2.29968e-10
4.18885e-05
0.112186
0.0429831
0.00014379
1.23418e-06
2.21116e-40
2.66352e-40
3.2736e-42
4.78454e-42
0.0638986
0.0206163
1.91124e-10
1.2079e-10
1.40472e-10
7.46935e-11
2.20665e-40
1.59425e-40
0
0
0.0324028
0.0082537
0.0915585
0.207276
5.44388e-24
7.60775e-20
9.89209e-11
1.51026e-10
2.62292e-42
2.10556e-42
8.41134e-11
1.05347e-40
4.29709e-41
1.65409e-40
0
0
0.0141222
0.00248219
0.343052
4.06935e-11
0.67557
4.54611e-11
0
0
0
0
1.92876e-32
4.36704e-33
8.54353e-32
3.02307e-32
1.861e-31
7.89979e-32
2.67504e-31
1.26875e-31
2.62601e-31
1.36679e-31
1.97242e-31
1.11203e-31
9.2747e-32
5.99037e-32
4.97207e-34
6.92312e-33
1.40057e-33
2.69695e-34
7.412e-31
0
0
0
1.29223e-27
1.05574e-28
0
0
0
0
0
0
0
6.77057e-32
0
0
4.38384e-22
0
0
0
0
0
0
0
0
0
4.07529e-22
3.45986e-25
1.44782e-27
0.164166
0.117505
0.172719
0.125484
0.171977
0.125965
0.164146
0.121522
0.148125
0.110825
0.126032
0.0952422
0.101678
0.0772399
0.0783065
0.0597487
0.0569258
0.0438344
0.0576597
0.0388297
0.0302239
0.0247571
0.0195008
0.0146998
0.0180403
0.0117309
0.0150483
0.00978344
0.0115799
0.00916888
0.0113762
0.00567102
0.00644901
0.00280044
0.0030396
0.00701891
0.00842762
0.00526329
0.0061162
0.00113403
0.00116038
0.00386591
0.00435073
0.000349957
0.000329078
7.71421e-11
1.13328e-10
1.05724e-42
1.40889e-42
5.40739e-43
1.19986e-42
1.57888e-43
6.9383e-05
5.59948e-05
4.9631e-11
4.25201e-43
0.000359088
0.00278178
0.00303369
0.00441924
0.00300448
0.00414571
0.00207414
0.00493143
0.000414066
6.58276e-05
6.14666e-41
0
0
0
0
0
0.0027465
0.00352798
1.13039e-40
0.00228069
2.74125e-11
4.46336e-06
1.54484e-06
4.13079e-45
5.0714e-43
7.44578e-43
0.00115387
0
1.31351e-21
3.51028e-22
5.71885e-11
8.05547e-11
2.9008e-11
4.01329e-44
0
0
3.17371e-41
6.97065e-41
0
0
0
0
0
0
8.36419e-19
2.52214e-21
0
9.92574e-23
0
0.00226216
0.00268598
6.73497e-05
0.00260776
0
6.03965e-21
1.26508
2.32384e-43
3.78062e-43
4.01713e-11
5.40302e-11
0
8.13491e-13
0
1.39078e-12
0
1.19519e-14
5.29107e-12
2.46658e-15
4.35578e-12
0
0
0
0
0
0
0
0
4.9125e-19
0
4.42539e-18
3.22681e-18
4.76847e-18
1.2592e-18
5.5906e-18
4.68909e-20
7.21097e-18
9.54539e-18
9.78785e-18
8.60541e-18
9.7109e-18
7.98851e-18
7.23099e-18
9.34394e-18
6.30231e-18
3.40983e-18
2.65667e-18
9.53503e-19
6.34689e-19
8.72637e-18
1.20872e-19
5.51023e-20
0
0
1.71204e-20
0
0
0
1.61079e-21
5.10873e-18
5.64336e-24
9.32866e-24
1.81276e-21
1.64754e-11
0
1.09193e-23
1.38466e-23
0
0
0
0
1.68665e-11
0
1.41828e-41
3.82496e-41
0.0016627
0.00181957
0
1.00243e-23
1.07897e-23
1.69574e-23
1.10102e-23
1.94416e-23
1.0381e-23
3.33466e-24
2.43435e-24
2.05435e-23
0
0
0
0
0
4.06501e-37
1.04293e-23
0
0
3.24328e-25
1.04068e-25
1.20844e-32
8.86561e-24
0
0.00322042
2.66082e-11
3.40166e-11
2.00723e-11
1.02714e-43
1.84182e-43
0
0
0
0
9.06828e-24
3.21849e-51
1.80138e-52
9.90962e-12
7.04164e-23
0
7.82022e-41
9.40306e-42
2.33175e-41
2.61812e-44
2.46966e-42
0
0
0
0
0
0
0
0
0
1.34924e-50
1.30204e-52
0
0
0
0
0
8.53042e-53
0
0
0
0
0
0
9.46166e-12
0
0
0.00108522
0.00110155
0.00100652
5.30463e-42
1.87027e-41
0.131629
9.82675e-12
1.64654e-11
1.65246e-22
3.76786e-24
0
0
0
0
0
0
9.52563e-30
0
3.11841e-29
2.1109e-29
3.92658e-29
3.21749e-29
8.98764e-30
3.08219e-29
2.26927e-29
0
1.3804e-29
0
5.55249e-30
0
0
0
0
0
1.28459e-29
0
0
0
0
0
0
0
0
1.44584e-25
7.04522e-24
1.22522e-23
1.47214e-24
1.75572e-23
0
3.75947e-23
6.40878e-23
7.05226e-23
2.20681e-23
7.29093e-23
2.49105e-23
6.96582e-23
2.61863e-23
6.1113e-23
2.37956e-21
0
1.85192e-22
2.53842e-23
4.99142e-23
9.45705e-23
6.75605e-23
5.91724e-12
5.5153e-12
0
3.77958e-23
4.53504e-23
6.22653e-23
3.121e-23
6.47525e-28
2.3178e-27
0
3.29598e-27
0
4.36097e-27
3.69712e-27
3.14199e-27
1.30259e-27
7.47747e-28
2.34575e-27
3.3474e-28
9.66641e-30
0
9.62245e-29
0
0
0
0
7.86654e-33
1.85884e-32
1.59705e-32
1.1884e-32
1.18952e-32
0
0
2.79174e-23
1.25535e-23
4.67211e-24
0
0
0
0
0
0
0
0
0
0
0
0
0
0
1.71156e-13
2.94334e-12
4.09684e-12
5.56079e-13
4.70811e-12
2.0567e-11
1.84746e-11
6.34465e-11
5.12517e-11
1.5613e-11
3.99442e-11
1.25893e-11
3.01915e-11
1.65913e-50
7.88709e-33
4.47446e-33
0.0904065
2.13253e-43
0
0
1.65144e-11
1.99603e-11
4.17601e-11
2.30636e-11
4.89867e-11
2.52728e-11
5.44553e-11
2.57529e-11
5.65136e-11
2.51189e-11
5.54991e-11
2.35488e-11
5.25722e-11
2.09622e-11
4.73984e-11
1.75013e-11
4.0172e-11
1.35131e-11
3.15817e-11
9.47389e-12
2.26447e-11
5.8711e-12
1.44567e-11
5.31858e-11
3.48872e-11
1.22866e-10
8.2617e-11
2.79361e-10
3.07679e-12
1.92184e-10
6.25449e-10
4.39477e-10
1.37929e-09
9.88493e-10
2.99702e-09
2.18787e-09
6.41811e-09
4.76693e-09
1.35491e-08
1.02277e-08
2.82004e-08
2.16148e-08
5.78699e-08
4.5003e-08
1.17092e-07
9.23211e-08
2.33623e-07
1.86628e-07
4.59691e-07
3.71807e-07
8.92105e-07
1.38276e-07
7.30092e-07
1.70754e-06
1.93784e-06
3.62471e-06
1.22501e-50
4.35348e-44
8.71536e-44
0
0
1.28e-32
3.22313e-06
6.6884e-06
1.24423e-17
7.09686e-06
1.28395e-05
1.21764e-05
2.29237e-05
2.32551e-05
4.08032e-05
4.03814e-05
7.06183e-05
6.70559e-05
0.000113387
0.00012054
0.00018913
0.000167108
0.000273007
0.000311143
0.000439882
0.000365286
0.000576896
0.000698913
0.000898278
0.000704577
0.00107507
0.00137879
0.00161655
0.00119974
0.00176624
0.00239489
0.00256172
0.00180121
0.00256155
0.0036568
0.00359887
0.00514445
0.00498642
8.00917e-24
0
0
9.29724e-12
1.53026e-11
1.22462e-50
1.58642e-33
6.84986e-34
3.5994e-12
3.27384e-12
0.000635065
0.000596831
0.00105628
0.00051927
0.000939157
0.000412825
0.000767162
0.000295425
0
0
0
0
0
0
9.779e-12
2.22142e-11
0.00174237
1.16645e-10
1.75888e-09
3.24385e-31
1.57154e-10
0
0
0.000568184
0.000185637
0.00713397
0.00680903
1.16289e-11
5.68655e-12
6.3564e-51
3.96497e-35
6.40181e-37
3.03222e-29
1.70311e-29
1.41464e-29
5.11468e-30
3.3282e-30
5.5016e-31
1.53473e-31
0
0
0
0
0
0
0
0
0
0
0
1.73237e-44
3.94216e-44
1.17776e-43
5.91851e-44
1.20435e-43
6.67895e-44
5.02551e-44
3.91214e-44
0
5.4898e-45
0
0
0
0
1.72392e-39
7.20466e-41
2.52433e-38
8.51521e-39
7.41398e-38
3.07129e-38
1.35837e-37
6.23231e-38
1.77263e-37
3.47484e-37
3.10706e-37
1.81084e-37
1.08001e-37
1.77929e-37
0
0
0
0
0
2.00126e-36
1.0288e-32
2.68307e-31
7.25274e-31
1.95754e-30
4.07714e-30
5.807e-30
9.96499e-30
3.16141e-30
6.08174e-30
6.09046e-30
0
0
0
3.25893e-27
6.05262e-26
1.47706e-25
1.92294e-26
2.13465e-26
3.1015e-25
5.96826e-25
8.88069e-25
7.90558e-30
5.51433e-25
1.16835e-24
7.35633e-25
2.10526e-25
1.17802e-24
0
0
1.04904e-23
0
7.48712e-23
4.01167e-22
7.71104e-22
2.20673e-22
1.30047e-21
2.98673e-21
3.87356e-21
1.99255e-21
5.1811e-21
7.40253e-21
1.13213e-20
1.14708e-20
2.16034e-20
2.90417e-21
7.742e-21
9.39408e-21
0
7.36086e-12
1.596e-11
4.49411e-11
3.11347e-11
1.12279e-11
3.94902e-51
8.28892e-12
2.25419e-50
0
2.23382e-12
1.98291e-12
0
0
6.75186e-38
4.08003e-31
1.04287e-11
2.00957e-10
0.242005
0.304978
2.11288e-05
1.43705e-09
1.16373e-12
4.33003e-13
1.43395e-21
0.235099
2.96253e-21
0.00456911
0.00610632
0.00915325
0.00802785
4.84076e-28
0
4.42234e-20
1.64147e-20
0
0
0
0
3.56814e-21
1.33678e-28
1.65793e-08
2.65581e-34
0
0
0
9.11277e-15
0.154034
0.158849
0.0830619
0.0051076
0.00655293
0.010379
0.00826121
0.0131918
0.0102297
0.0164769
0.0124367
0.0202162
0.0148374
0.0243552
0.0173614
0
0
4.54953e-10
8.2658e-11
0
0
0.000148588
0.000329002
0
0
0
0
0
5.89007e-41
1.41379e-12
1.22613e-12
0
0
2.96847e-12
0.000373824
9.81997e-05
0.0287977
6.69019e-08
0
2.73973e-44
1.69809e-44
2.22478e-34
0.00710883
0
0
1.72868e-40
5.02469e-40
2.78016e-22
0
0
0
0.0199124
0.0807669
0.0847468
0.0124534
3.49574e-28
3.60599e-28
0
0
0
0
5.55557e-11
1.39993e-10
1.4121e-13
6.18611e-15
1.72653e-51
5.20884e-52
1.20888e-38
0
0
0
0
1.53505e-12
9.1086e-13
7.73349e-13
0.587725
1.95535e-29
0
0
0
0
0
3.81169e-35
5.54949e-35
1.45266e-34
1.09873e-34
1.29517e-34
8.95929e-35
7.09345e-35
1.23109e-34
4.09843e-35
1.16039e-10
0.345747
8.30528e-35
1.5632e-35
5.96756e-10
0
0
0
0
2.22651e-35
0.000211419
4.01834e-05
1.53772e-05
2.78905e-06
4.14679e-07
0
0.00396829
0.00863921
3.74863e-40
3.7613e-40
0
0
0
0
0
0
1.99613e-07
2.88218e-06
0.020195
1.02496e-12
6.39302e-13
8.45838e-13
5.28152e-13
6.96899e-13
4.0836e-13
9.39666e-33
3.15689e-51
3.77519e-35
2.70095e-36
8.46875e-36
0
0
0
0
2.35086e-42
0
1.25197e-09
0.0334024
0.0381744
0.0409279
0
1.83869e-27
3.79917e-28
9.98391e-21
9.28727e-21
9.16439e-11
2.20207e-10
0
0
4.38514e-13
5.67986e-13
7.13689e-52
1.48819e-51
2.20494e-43
0
0
0
0.0223703
0.0125359
2.22722e-42
0
8.65217e-22
0.000957407
2.33955e-40
1.56871e-40
0
0
0
0
4.92786e-05
9.80922e-05
0.0871102
0.0429243
0.0877452
0
0
0
0
0
0
0
0
0
1.64525e-43
0
5.20747e-29
0
0
0
2.79311e-40
4.09587e-42
0.217154
8.38172e-41
3.27123e-41
6.74749e-20
2.15925e-20
1.67691e-09
0
0
0
0.000725441
0.000434275
0.0159314
0
0
0
1.51554e-19
7.49071e-20
3.0615e-19
2.34162e-19
3.8192e-19
3.44077e-19
3.73219e-19
0
0
0.0440724
0
1.40779e-10
5.92681e-11
3.23656e-10
5.11671e-10
0
0.000353289
0.0135718
0.00708545
0.0379845
0.000613013
0.000185575
5.29586e-46
3.69548e-19
3.0697e-19
0.00424507
9.14869e-20
0
0.00331121
1.8861e-06
1.0116e-34
0
0.000317534
0.899969
0.0140909
2.50277e-27
1.41829e-27
2.3504e-27
1.74015e-27
1.32996e-27
0
8.9254e-35
1.39337e-40
1.4369e-41
0.0867308
3.29039e-09
1.63849e-08
0.000197576
0
0
1.43487e-19
3.58934e-13
4.46699e-13
2.74031e-52
6.66979e-52
1.21638e-27
1.35533e-42
1.59115e-43
0
0
0
1.5872e-12
1.53215e-15
5.09592e-16
0
0
0
0
1.16328e-10
7.21975e-42
4.22778e-42
2.02439e-10
1.50152e-20
1.13918e-20
0.00153593
0
0
0
0
1.24177e-43
1.16533e-42
2.06043e-42
1.8885e-42
0
1.38232e-38
0
0
0
0.00519397
4.30786e-28
0
0
2.98691e-42
0.00732394
0.00135985
0.000855024
0.00247974
1.19774e-26
0
0.004803
0.00394182
0.00349415
2.8246e-19
0.0382364
3.3889e-19
1.0855e-29
4.41162e-24
0
0.0443052
0.0198907
0
0
0
0
0.0904604
6.31793e-41
1.34055e-11
6.93432e-12
4.43314e-12
3.52183e-12
2.3292e-12
1.74706e-12
2.61426e-12
1.19415e-12
1.22074e-12
1.81172e-12
2.5533e-11
1.81781e-43
1.2528e-20
8.6214e-21
1.76826e-20
8.27353e-21
5.6371e-21
5.83174e-21
3.47791e-21
3.98075e-21
2.5482e-21
1.3601e-21
7.42831e-22
4.4859e-09
4.46436e-10
5.46358e-42
2.14672e-42
0.0839628
3.62953e-41
2.80474e-13
3.29645e-13
2.32776e-13
9.57144e-53
2.80933e-52
4.4778e-54
7.93116e-13
1.16965e-12
2.18927e-09
8.71781e-28
8.1603e-28
2.05624e-28
6.79914e-41
8.28676e-09
5.86646e-09
5.97546e-09
2.77856e-09
1.40998e-40
3.88819e-28
0
0
1.65097e-48
3.32261e-22
1.16326e-22
7.61957e-19
0
2.22324e-36
8.7733e-43
8.44137e-43
6.88851e-38
0
0
4.45443e-55
5.56196e-55
0
0
0
7.01743e-21
5.23173e-24
2.53866e-22
5.78611e-23
0.00342869
0.00733105
0
0
5.45437e-13
3.77769e-13
2.04274e-19
1.14567e-12
0
9.78684e-33
0
2.62942e-32
2.89206e-19
0
2.88659e-35
0.00502407
0.00772282
0.0204559
0.00789197
1.98615e-42
0
1.29813e-19
4.0043e-19
7.7624e-09
3.41644e-09
1.40197e-08
9.62735e-09
2.23325e-13
2.38885e-13
4.22498e-13
2.48966e-13
1.42347e-28
0
0.00246698
0.00336135
0.00161921
0.000964043
0.000694718
2.07037e-42
6.33396e-42
4.74626e-43
0.00149061
0.00156176
0.0126289
0.0541697
0
0.579565
0.413689
1.65906e-21
1.6125e-10
3.00111e-28
3.02871e-29
3.13458e-30
0.304205
1.98382e-25
3.68591e-21
2.28874e-23
2.65346e-23
1.5695e-23
2.13367e-23
0
0
0
0
1.38451e-21
1.12829e-23
0
1.74837e-23
0
2.27175e-23
0
0
3.00169e-23
1.01685e-19
0.39131
0
2.00576e-51
0
0
6.09874e-21
2.90967e-53
1.12459e-52
4.77294e-13
7.01146e-13
3.05538e-54
1.02767e-53
1.78054e-53
2.58505e-49
3.22251e-50
0
0
1.78122e-34
4.30685e-32
0
8.40394e-18
1.0428e-23
3.25812e-23
2.89547e-23
2.43872e-23
1.21453e-23
7.56737e-24
4.61638e-13
2.53472e-13
0
0
1.7285e-24
5.56938e-25
0
0
7.71248e-35
2.73544e-10
4.40951e-41
5.16114e-41
0.00836241
3.07294e-22
1.99388e-23
2.7398e-12
2.19444e-08
1.46682e-08
9.8107e-09
4.04921e-09
5.79763e-10
9.77938e-54
1.22523e-53
3.31481e-13
2.10781e-24
0
1.74901e-22
5.35545e-22
2.42319e-53
2.79294e-52
5.7208e-36
2.73479e-35
2.08567e-35
4.23777e-35
0
4.36999e-35
4.62916e-35
3.28256e-43
1.53213e-43
2.18571e-33
2.64867e-32
0
4.25078e-33
5.54656e-32
2.24439e-31
2.15678e-31
4.92606e-13
2.50611e-13
0
0.14812
0.138456
0.222965
3.48296e-10
0.000459012
0
1.38182e-52
0
5.41725e-52
5.65823e-52
5.34477e-52
4.07288e-52
2.12907e-52
3.31824e-52
6.3468e-53
1.29615e-52
6.19514e-54
2.63751e-53
0
4.80556e-56
0
0
0
0
0
3.59048e-60
1.12164e-62
0
0
0
0
0
0
3.87356e-67
4.28782e-65
0
0
1.98415e-66
0
0
0
2.35727e-66
5.81262e-62
0
0
1.16291e-52
0
0
0
0
0
0
3.49446e-21
6.29991e-20
1.0642e-19
4.25736e-19
6.88542e-19
1.70797e-18
1.12843e-18
3.12294e-18
4.19467e-18
5.35267e-18
5.8996e-18
6.0527e-18
8.47037e-18
5.6992e-18
2.73316e-18
0
0
0
0
3.67887e-18
2.20145e-18
1.636e-14
3.78074e-14
0
0
1.4102e-12
5.03353e-11
0
0
8.24264e-43
0
0
0
2.03266e-29
1.81855e-30
0
5.74228e-30
1.39214e-30
1.86023e-29
0
5.50953e-49
4.63395e-49
0
0
6.20053e-32
1.81033e-31
4.23624e-31
2.89402e-31
1.34923e-31
1.8024e-31
2.62193e-31
1.01623e-31
9.62226e-32
1.50795e-32
2.65172e-13
3.89161e-13
0.00327907
0.00719234
0.000924096
0.000196323
0
0
0.00573925
0.00695026
1.66191e-10
5.11786e-13
2.41006e-13
0.000593168
0.000646601
1.25096e-19
2.25862e-19
3.02442e-19
1.20722e-31
0.00265283
0
0
2.2005e-52
1.00297e-29
1.53286e-29
7.47844e-18
3.46584e-44
2.38474e-49
3.09121e-49
2.70282e-49
1.50918e-49
0
0.201718
0.126821
0.298988
5.29048e-35
4.13249e-35
0.013488
0.00895423
0.0199546
0.0116451
8.16379e-18
0
3.84965e-41
1.35894e-41
1.20269e-08
4.5886e-09
1.25023e-13
1.37059e-13
1.15552e-21
2.41437e-25
6.75595e-54
4.16856e-53
2.15932e-52
9.23971e-53
2.7651e-52
1.28609e-52
2.16115e-52
1.27034e-52
3.06134e-43
8.38659e-45
5.56695e-44
0
0
7.41082e-05
0.000138398
2.86206e-05
0.00047283
0
1.87414e-23
0.00293344
3.20013e-08
2.08738e-08
4.87801e-12
0
0
0
0
0
0
0
3.57002e-52
2.95162e-28
0
1.19537e-20
1.81266e-20
0.087545
0
2.6425e-18
0.00864666
0.020825
0
0.895438
9.00457e-11
3.93576e-54
1.36108e-13
1.99692e-13
5.76705e-13
2.93814e-13
9.43816e-14
1.37198e-13
0
4.6741e-32
3.89734e-32
6.7988e-49
4.05602e-32
0
2.52602e-52
2.847e-52
0
0
4.11958e-22
6.06282e-22
9.05968e-22
6.88969e-22
1.82347e-22
8.88822e-36
1.62926e-37
3.09354e-35
1.95994e-35
2.93899e-35
9.34877e-36
1.59877e-35
3.0038e-36
0
0
0
0
7.64553e-26
1.85442e-25
7.22402e-25
1.27678e-24
2.90407e-24
4.38963e-24
2.13054e-24
6.40341e-24
9.18519e-24
1.1968e-23
9.0286e-24
1.51004e-23
1.48483e-23
1.61548e-23
7.44064e-24
5.74724e-24
0
0
2.90346e-24
0
0
0
0
0
0
0
0
3.22618e-20
5.74048e-20
3.00565e-19
4.03441e-19
9.02226e-20
5.1368e-19
1.41191e-18
1.58669e-18
6.23457e-19
1.72528e-18
3.12341e-18
3.10057e-18
1.82474e-18
3.00005e-18
1.87807e-18
2.8363e-18
3.25787e-18
2.81068e-18
2.61028e-18
2.48686e-18
1.27321e-23
1.72143e-18
1.34167e-18
2.19124e-18
1.38745e-18
8.66036e-19
0
0
0
0
0
0
0
0
0
0
0
0
0
2.12565e-07
4.24915e-07
0
6.34157e-07
4.28659e-09
8.01928e-07
4.50967e-06
3.96514e-08
9.31232e-07
5.19786e-06
4.94377e-06
9.89653e-07
4.51148e-06
1.59549e-05
1.33279e-05
3.84418e-05
3.01839e-05
1.08221e-05
2.31226e-05
5.61577e-05
4.10315e-05
8.89918e-05
6.23958e-05
0.00012269
8.28696e-05
4.28152e-05
5.48117e-05
9.73631e-05
6.22556e-05
0.000102407
6.35879e-05
9.85718e-05
5.97782e-05
8.66748e-05
3.88026e-05
3.55277e-05
2.32796e-05
2.06847e-05
1.37125e-05
2.87572e-05
1.17973e-05
1.64564e-05
7.92054e-06
8.57005e-06
4.99349e-06
8.55077e-06
0.00015952
4.4813e-06
2.85772e-06
5.10322e-06
0
3.81693e-06
2.41253e-05
1.22433e-23
8.17903e-50
3.8052e-50
0.000435808
0.0017784
5.66011e-05
0.0112948
0.0124178
5.10628e-13
2.24416e-13
8.71175e-13
4.62803e-26
0
2.89438e-27
4.36327e-27
0
5.26333e-27
4.15341e-27
2.85599e-27
4.61602e-27
1.60695e-27
0
0
6.49723e-09
1.32311e-09
1.27689e-09
4.89138e-09
1.132e-09
2.00838e-10
1.06584e-10
0
3.73668e-24
4.02378e-28
9.41157e-29
7.37221e-28
1.05622e-30
0
0
0
1.06053e-33
4.41039e-33
3.67427e-33
1.87546e-33
2.63636e-33
2.37483e-33
1.46058e-33
1.70428e-33
3.32566e-32
3.01103e-32
1.51103e-32
8.63441e-33
2.14877e-32
4.474e-33
3.90358e-34
4.00766e-35
2.64816e-19
2.5073e-19
1.97525e-33
0
0
0
9.21686e-34
4.97631e-34
1.57568e-12
8.35285e-13
0
0
1.87471e-49
0.0213226
0
6.10968e-43
0.0289975
0.0172289
0.262163
0.359658
0.000211092
0.000243202
0.000173232
3.6977e-53
5.72532e-53
6.24894e-36
4.47891e-37
1.87666e-41
7.60958e-23
9.37466e-21
1.5331e-20
2.60169e-20
2.39895e-20
3.60127e-20
3.58422e-20
4.83613e-20
5.0424e-20
6.23923e-20
6.77309e-20
7.58736e-20
4.65253e-20
4.5969e-20
0
8.35674e-21
3.69765e-20
0
0
1.92347e-20
0
9.40888e-21
7.75754e-20
5.50663e-20
1.38333e-19
1.38681e-19
1.28496e-20
1.33084e-19
1.98677e-19
2.12203e-19
1.06958e-19
2.09909e-19
2.47315e-19
2.73797e-19
8.57123e-13
0
0
0
0.000177862
8.75188e-10
9.82637e-12
0
0
0
0
0
0
1.14216e-15
1.87839e-18
0
0
0
0
1.57798e-21
1.60696e-17
5.07324e-20
0
0
2.13765e-20
0
0
2.99256e-22
5.18301e-22
1.38461e-21
0
2.49068e-21
1.28752e-21
4.01779e-21
3.07871e-21
5.60907e-21
5.07526e-21
1.92959e-21
4.51924e-21
6.94815e-21
7.46588e-21
8.01451e-21
9.90991e-21
5.40841e-22
8.92659e-21
1.19884e-20
5.77494e-21
8.93855e-21
1.29816e-20
2.05847e-08
3.22837e-08
7.10534e-10
1.19444e-09
4.18759e-10
0.0143828
6.35473e-53
3.28442e-53
0
1.32591e-53
0
0
0
0
3.26809e-50
0
9.30182e-47
2.07398e-47
3.47665e-46
1.21654e-46
6.69629e-46
2.67382e-46
8.77166e-46
3.83835e-46
8.41365e-46
4.19053e-46
2.61352e-46
2.11644e-46
0
3.40439e-47
0
0
0
0
1.57038e-41
3.36025e-43
2.19388e-40
6.46493e-41
5.94224e-40
1.52288e-39
2.37875e-39
1.01782e-39
2.79451e-39
1.27001e-39
2.11452e-39
1.17261e-39
5.98083e-40
1.08284e-39
0
0
0
0
2.52447e-35
0
1.2464e-33
3.70686e-33
1.03444e-32
2.50257e-32
4.17657e-32
9.00037e-32
1.06351e-31
1.98821e-31
1.0493e-31
1.12089e-31
4.09792e-33
0
0
0
1.29889e-28
0
2.02462e-27
6.44437e-27
0
5.84934e-32
1.24821e-26
2.50522e-26
2.15518e-26
2.65097e-26
1.50151e-26
4.58966e-26
1.59691e-26
7.07888e-26
0
5.35534e-39
9.04292e-26
0
6.91869e-26
0
0
1.40178e-24
0
1.49089e-23
1.13346e-22
2.84532e-22
6.54215e-23
6.20363e-22
1.89403e-22
1.21404e-21
2.02503e-21
3.19196e-21
2.13078e-21
4.52051e-21
4.44554e-21
5.03151e-21
5.85699e-21
4.68889e-21
0
8.99671e-22
0
0
4.25895e-21
0
0
0
0
0
1.91459e-07
3.11949e-08
9.97317e-07
3.20375e-07
2.65765e-06
1.02613e-06
5.1559e-06
2.18534e-06
8.1945e-06
3.68212e-06
1.1275e-05
5.28112e-06
1.38435e-05
6.69392e-06
2.78999e-05
1.54856e-05
7.67118e-06
4.66312e-44
1.18667e-43
4.01988e-45
2.48484e-06
1.60479e-06
0
8.81033e-51
2.44427e-51
3.84855e-54
2.11805e-37
9.50861e-38
8.62187e-33
0
0
0
0
1.09031e-21
6.47733e-22
0.00304242
0.00688273
0.0147058
0.0144108
0.0283274
6.14407e-07
0
0.0281888
0.0513101
4.93254e-13
2.01908e-13
8.76758e-14
7.29795e-14
1.74973e-13
5.83349e-14
1.45043e-13
4.42292e-14
1.13729e-13
3.12008e-14
8.29399e-14
1.98941e-14
5.48713e-14
1.09518e-14
6.90807e-15
2.27867e-14
0
0
0
3.90055e-06
0.000298883
3.16995e-14
4.77657e-15
3.46097e-54
1.32802e-53
0.000152333
5.37237e-06
0.0193547
0.0179022
0.0195613
3.60632e-06
1.36834e-20
1.70672e-20
0.000704688
5.95587e-13
6.51212e-54
0
4.69307e-41
5.19375e-17
1.87881e-34
5.25966e-21
3.72711e-39