/*--------------------------------*- C++ -*----------------------------------*\
  =========                 |
  \\      /  F ield         | OpenFOAM: The Open Source CFD Toolbox
   \\    /   O peration     | Website:  https://openfoam.org
    \\  /    A nd           | Version:  6
     \\/     M anipulation  |
\*---------------------------------------------------------------------------*/
FoamFile
{
    version     2.0;
    format      ascii;
    class       volScalarField;
    location    "25920000";
    object      h;
}
// * * * * * * * * * * * * * * * * * * * * * * * * * * * * * * * * * * * * * //

dimensions      [0 1 0 0 0 0 0];

internalField   nonuniform List<scalar> 
11830
(
10.501
10.0013
10.499
10.999
10.495
10.4904
10.4853
10.4805
10.4753
10.4705
10.4654
10.4604
10.4554
10.4504
10.4454
10.4403
10.4352
10.4303
10.4252
10.4204
10.4153
10.4104
10.4053
10.4001
10.3953
10.3902
10.3853
10.3802
10.3752
10.3702
10.365
10.3602
10.3551
10.3503
10.3451
10.3403
10.3352
10.33
10.3252
10.32
10.3152
10.3101
10.305
10.3001
10.295
10.2902
10.285
10.2802
10.275
10.2698
10.265
10.2598
10.255
10.2499
10.245
10.24
10.2351
10.2301
10.225
10.22
10.2149
10.2099
10.2049
10.1999
10.1949
10.1899
10.1849
10.1799
10.1749
10.1699
10.1648
10.1599
10.1548
10.1498
10.1448
10.1397
10.1348
10.1297
10.1249
10.1197
10.1149
10.1098
10.1048
10.0998
10.0947
10.0898
10.0847
10.0797
10.0747
10.0696
10.0646
10.0596
10.0546
10.0496
10.0445
10.0396
10.0345
10.0297
10.0245
10.0197
10.0146
10.0096
10.0048
10.0052
10.01
10.015
10.02
10.025
10.03
10.035
10.0401
10.0451
10.0501
10.0551
10.0601
10.0651
10.0701
10.0751
10.0801
10.0851
10.0901
10.0951
10.1002
10.1052
10.1102
10.1151
10.1201
10.1251
10.1303
10.1352
10.1402
10.1453
10.1503
10.1553
10.1603
10.1653
10.1703
10.1753
10.1803
10.1853
10.1903
10.1953
10.2003
10.2053
10.2103
10.2154
10.2204
10.2254
10.2304
10.2354
10.2404
10.2454
10.2504
10.2554
10.2604
10.2654
10.2705
10.2755
10.2805
10.2855
10.2905
10.2955
10.3005
10.3055
10.3105
10.3155
10.3205
10.3256
10.3306
10.3356
10.3406
10.3456
10.3506
10.3556
10.3606
10.3656
10.3706
10.3756
10.3807
10.3857
10.3907
10.3957
10.4007
10.4057
10.4107
10.4157
10.4207
10.4257
10.4307
10.4358
10.4408
10.4458
10.4508
10.4558
10.4608
10.4658
10.4708
10.4758
10.4808
10.4858
10.4908
10.4958
10.5043
10.5092
10.5142
10.5193
10.5242
10.5293
10.5342
10.5392
10.5442
10.5492
10.5542
10.5592
10.5643
10.5692
10.5743
10.5793
10.5843
10.5893
10.5943
10.5993
10.6043
10.6093
10.6143
10.6193
10.6243
10.6294
10.6344
10.6394
10.6444
10.6494
10.6544
10.6594
10.6644
10.6694
10.6745
10.6795
10.6845
10.6894
10.6945
10.6995
10.7045
10.7095
10.7145
10.7196
10.7246
10.7296
10.7346
10.7396
10.7446
10.7495
10.7546
10.7596
10.7647
10.7696
10.7746
10.7797
10.7846
10.7897
10.7946
10.7997
10.8047
10.8097
10.8148
10.8197
10.8247
10.8297
10.8348
10.8398
10.8448
10.8498
10.8548
10.8599
10.8648
10.8698
10.8749
10.8798
10.8849
10.8898
10.8948
10.8997
10.9048
10.9099
10.9148
10.9199
10.9249
10.9299
10.9349
10.9399
10.9449
10.9499
10.955
10.96
10.965
10.97
10.975
10.98
10.985
10.99
10.9949
10.9956
10.9908
10.9858
10.9809
10.9758
10.9709
10.9658
10.9608
10.9558
10.9508
10.9458
10.9408
10.9357
10.9307
10.9257
10.9207
10.9157
10.9107
10.9057
10.9007
10.8957
10.8907
10.8857
10.8806
10.8756
10.8706
10.8656
10.8606
10.8556
10.8506
10.8456
10.8406
10.8356
10.8306
10.8256
10.8205
10.8155
10.8105
10.8055
10.8005
10.7955
10.7905
10.7855
10.7805
10.7755
10.7705
10.7654
10.7604
10.7554
10.7504
10.7454
10.7404
10.7354
10.7304
10.7254
10.7204
10.7154
10.7103
10.7053
10.7003
10.6953
10.6903
10.6853
10.6803
10.6753
10.6703
10.6653
10.6603
10.6552
10.6502
10.6452
10.6402
10.6352
10.6302
10.6252
10.6202
10.6152
10.6102
10.6052
10.6001
10.5951
10.5901
10.5851
10.5801
10.5751
10.5701
10.5651
10.5601
10.5551
10.5501
10.545
10.54
10.535
10.53
10.525
10.52
10.515
10.51
10.5051
10.7446
10.2507
10.256
10.7484
10.2961
10.2107
10.7897
10.7037
10.2057
10.6995
10.301
10.7941
10.1708
10.6636
10.3359
10.8298
10.3413
10.8339
10.166
10.6594
10.6287
10.1358
10.8648
10.371
10.1309
10.3761
10.6244
10.8698
10.5977
10.1055
10.8949
10.4009
10.5943
10.8992
10.1003
10.4064
10.0804
10.5742
10.9199
10.4264
10.9243
10.4315
10.5693
10.0754
10.5481
10.9449
10.0556
10.4521
10.7246
10.2313
10.769
10.276
10.2757
10.7697
10.5492
10.0553
10.6795
10.9442
10.4515
10.8137
10.3211
10.1857
10.3158
10.8097
10.2307
10.7242
10.1908
10.6836
10.4712
10.0356
10.9642
10.5291
10.5281
10.0353
10.9651
10.4712
10.6434
10.1508
10.1201
10.6135
10.8498
10.3563
10.1155
10.3612
10.391
10.1456
10.6093
10.8837
10.8546
10.6394
10.8798
10.3857
10.4861
10.9793
10.0204
10.514
10.5141
10.0203
10.9796
10.4867
10.0654
10.5587
10.7346
10.241
10.2205
10.7145
10.7387
10.2459
10.2612
10.7546
10.266
10.7592
10.7789
10.286
10.4164
10.4414
10.9089
10.3311
10.9349
10.4411
10.6537
10.1608
10.9542
10.9343
10.4614
10.955
10.461
10.0451
10.5375
10.5392
10.0455
10.0647
10.5592
10.5793
10.6695
10.1955
10.6895
10.0855
10.8041
10.823
10.1757
10.3111
10.6494
10.1554
10.9049
10.4111
10.3057
10.2867
10.7797
10.3252
10.7135
10.8197
10.7997
10.3512
10.8443
10.2207
10.347
10.8398
10.5835
10.0904
10.1809
10.6738
10.693
10.2007
10.4961
10.9892
10.0106
10.504
10.7396
10.7377
10.7428
10.7359
10.7409
10.734
10.739
10.7322
10.7372
10.7303
10.7353
10.7285
10.7335
10.7266
10.7216
10.7198
10.7248
10.7179
10.7229
10.716
10.7211
10.7142
10.7192
10.7123
10.7174
10.7105
10.7155
10.7086
10.7137
10.7068
10.7018
10.6999
10.6949
10.6931
10.6881
10.6862
10.6812
10.6793
10.6743
10.6725
10.6675
10.6656
10.6606
10.6588
10.6537
10.6519
10.6469
10.645
10.64
10.6382
10.6432
10.6363
10.6313
10.6295
10.6245
10.6226
10.6276
10.6208
10.6157
10.6139
10.6189
10.6121
10.607
10.6052
10.6102
10.6033
10.6084
10.6015
10.5965
10.5946
10.5896
10.5878
10.5928
10.5859
10.5809
10.5791
10.5841
10.5772
10.5722
10.5704
10.5754
10.5685
10.5635
10.5617
10.5667
10.5598
10.5649
10.558
10.553
10.5511
10.5562
10.5493
10.5443
10.5424
10.5374
10.5356
10.5406
10.5337
10.5287
10.5269
10.5319
10.5251
10.52
10.5182
10.5232
10.5164
10.5214
10.5113
10.5095
10.5045
10.5026
10.4976
10.4958
10.4908
10.4889
10.4839
10.4821
10.4771
10.6981
10.4752
10.4702
10.4684
10.4734
10.4634
10.4652
10.4583
10.4602
10.4533
10.4665
10.4716
10.4552
10.4647
10.4697
10.4483
10.4501
10.4629
10.4679
10.4433
10.4451
10.461
10.466
10.4383
10.4592
10.4642
10.4401
10.4333
10.4574
10.4624
10.4351
10.4282
10.4555
10.4605
10.4301
10.4537
10.4587
10.4232
10.4251
10.4518
10.4569
10.4182
10.45
10.455
10.42
10.4132
10.4482
10.4532
10.46
10.4582
10.4651
10.4632
10.4701
10.4682
10.4751
10.4732
10.4801
10.4783
10.4851
10.4833
10.4901
10.4883
10.4951
10.4933
10.5002
10.4983
10.5052
10.5033
10.5102
10.5083
10.5152
10.5134
10.415
10.5202
10.4082
10.4063
10.4714
10.5065
10.5115
10.4013
10.3995
10.41
10.5047
10.5097
10.3944
10.3926
10.3876
10.3858
10.5028
10.5078
10.3807
10.3789
10.501
10.506
10.3739
10.3721
10.367
10.3652
10.4992
10.5042
10.3689
10.3602
10.3584
10.3533
10.3515
10.4973
10.5023
10.5092
10.5073
10.5142
10.5124
10.3465
10.3446
10.5005
10.5192
10.3396
10.3378
10.5174
10.3328
10.3309
10.5242
10.3259
10.3241
10.5224
10.3278
10.3191
10.3172
10.4463
10.5292
10.3122
10.3104
10.3154
10.3086
10.3136
10.3067
10.3118
10.3049
10.3099
10.3031
10.3081
10.2981
10.3012
10.3063
10.4168
10.4118
10.4187
10.4137
10.4205
10.4155
10.4224
10.4173
10.4242
10.4192
10.426
10.421
10.4279
10.4228
10.4297
10.4247
10.4315
10.4265
10.4334
10.4283
10.4352
10.4196
10.4302
10.437
10.432
10.4389
10.4338
10.4407
10.2994
10.3044
10.5274
10.4357
10.4425
10.4288
10.4375
10.4444
10.5342
10.2976
10.3026
10.522
10.5324
10.5256
10.4394
10.4462
10.5306
10.5237
10.2958
10.3008
10.4412
10.448
10.5393
10.6419
10.5287
10.5219
10.443
10.4499
10.2939
10.2989
10.2889
10.5269
10.52
10.4449
10.4517
10.438
10.4467
10.4536
10.4586
10.4604
10.5251
10.5182
10.4554
10.4623
10.4673
10.4691
10.4641
10.471
10.476
10.4778
10.4728
10.4797
10.4847
10.4865
10.4815
10.4884
10.4934
10.4953
10.4902
10.2871
10.2821
10.5003
10.4971
10.5232
10.5164
10.4921
10.2802
10.2752
10.5214
10.5145
10.5301
10.4989
10.4939
10.5195
10.5127
10.2734
10.2684
10.5177
10.5109
10.5058
10.504
10.499
10.509
10.5008
10.4957
10.4494
10.2665
10.2615
10.4972
10.4921
10.5271
10.5289
10.5339
10.5357
10.5408
10.5426
10.5476
10.5494
10.5545
10.5563
10.5613
10.5631
10.5682
10.57
10.575
10.5768
10.5819
10.5837
10.5887
10.5905
10.5956
10.5974
10.6024
10.6042
10.6093
10.6111
10.6161
10.6179
10.623
10.6248
10.6211
10.6298
10.6316
10.6367
10.6385
10.6435
10.6453
10.6504
10.6522
10.6572
10.659
10.6641
10.6659
10.6609
10.6677
10.6627
10.6696
10.6746
10.6764
10.6714
10.6783
10.6833
10.6851
10.6801
10.687
10.692
10.6938
10.6554
10.6988
10.7007
10.6957
10.7025
10.7075
10.7094
10.7043
10.7112
10.7062
10.713
10.7181
10.7199
10.7149
10.7217
10.7267
10.7286
10.7336
10.7354
10.7404
10.7423
10.7167
10.7473
10.7491
10.7542
10.756
10.751
10.7578
10.7629
10.7647
10.7597
10.7697
10.7716
10.6198
10.7766
10.7784
10.5026
10.4976
10.4907
10.4926
10.7834
10.4903
10.4853
10.2597
10.2647
10.2547
10.4857
10.7853
10.7903
10.4994
10.4944
10.445
10.7147
10.7523
10.2579
10.2629
10.4835
10.4784
10.3058
10.304
10.5013
10.4962
10.7921
10.7971
10.7953
10.4402
10.3634
10.256
10.261
10.4766
10.4716
10.8021
10.3108
10.309
10.5855
10.804
10.5031
10.4981
10.809
10.8003
10.2542
10.2592
10.4698
10.4748
10.4648
10.3158
10.314
10.3054
10.7871
10.5076
10.5581
10.6706
10.5869
10.8108
10.8158
10.505
10.4999
10.493
10.4949
10.3208
10.319
10.488
10.2524
10.2574
10.2474
10.4679
10.4729
10.4329
10.4523
10.5018
10.4967
10.8177
10.8227
10.4869
10.3259
10.324
10.2505
10.2556
10.4661
10.4711
10.5036
10.4986
10.3309
10.329
10.8245
10.8295
10.8277
10.8345
10.4643
10.4693
10.2487
10.2537
10.3359
10.3341
10.3377
10.447
10.6693
10.4923
10.8314
10.8264
10.5055
10.5004
10.8327
10.4624
10.4674
10.4574
10.2469
10.2519
10.3409
10.3391
10.4711
10.4123
10.4364
10.8395
10.4666
10.4597
10.4616
10.4547
10.4566
10.4497
10.4516
10.4447
10.4465
10.4397
10.4415
10.4347
10.4365
10.4297
10.4315
10.4247
10.4265
10.4196
10.4215
10.4146
10.4165
10.4096
10.4115
10.4046
10.4064
10.3996
10.4014
10.3946
10.3964
10.3896
10.3914
10.3846
10.3827
10.3777
10.4028
10.4228
10.3759
10.3709
10.3864
10.369
10.364
10.3983
10.3622
10.3572
10.359
10.3522
10.354
10.3471
10.349
10.3421
10.7205
10.2565
10.2497
10.2515
10.2446
10.2465
10.2396
10.2414
10.2346
10.2364
10.2296
10.2314
10.2246
10.2264
10.2195
10.2214
10.2145
10.2163
10.2095
10.2127
10.2113
10.2045
10.2063
10.1995
10.2013
10.2081
10.1944
10.1926
10.2031
10.21
10.1876
10.1858
10.2049
10.2118
10.2068
10.2136
10.1807
10.1789
10.1739
10.1721
10.2086
10.2154
10.1671
10.1652
10.2104
10.2173
10.8332
10.8282
10.5073
10.5124
10.5023
10.4954
10.4972
10.2122
10.2191
10.8376
10.4903
10.2036
10.1602
10.1584
10.1634
10.1566
10.1616
10.1515
10.3459
10.3441
10.3372
10.4556
10.2451
10.2501
10.24
10.3403
10.3353
10.1547
10.1598
10.4506
10.162
10.8445
10.2141
10.2209
10.4922
10.5142
10.5192
10.3509
10.3491
10.3371
10.3303
10.8351
10.8301
10.8426
10.4853
10.2159
10.2227
10.4487
10.4437
10.2432
10.2482
10.2551
10.2533
10.2601
10.2583
10.2651
10.2633
10.2701
10.2683
10.3284
10.1529
10.158
10.3559
10.3578
10.3541
10.3321
10.3149
10.5211
10.5261
10.8369
10.8319
10.2177
10.2246
10.2296
10.2314
10.2264
10.2332
10.2383
10.2401
10.2451
10.2469
10.2419
10.2488
10.2538
10.2556
10.2606
10.2625
10.2574
10.2643
10.2693
10.2711
10.2762
10.278
10.283
10.2848
10.2899
10.2917
10.2867
10.2935
10.2985
10.3004
10.2953
10.3022
10.3072
10.3091
10.304
10.3109
10.3059
10.3127
10.3141
10.3077
10.3145
10.3095
10.3164
10.3214
10.3232
10.3182
10.325
10.3282
10.2593
10.32
10.3269
10.3027
10.8495
10.4871
10.3218
10.3287
10.361
10.3591
10.366
10.2109
10.8476
10.2464
10.4419
10.4369
10.1511
10.1561
10.4803
10.3237
10.3305
10.3356
10.3374
10.3424
10.3442
10.3392
10.3461
10.3493
10.5411
10.5461
10.494
10.489
10.4959
10.51
10.3234
10.3216
10.3166
10.341
10.3479
10.4183
10.5479
10.553
10.2204
10.8388
10.8338
10.8438
10.528
10.533
10.3641
10.371
10.3429
10.3497
10.3168
10.4908
10.4977
10.8545
10.5548
10.5598
10.4743
10.4724
10.4793
10.4775
10.4843
10.4825
10.4893
10.4875
10.4943
10.4925
10.4993
10.4975
10.5044
10.5025
10.5094
10.5075
10.4957
10.5144
10.5162
10.5212
10.5231
10.5125
10.5281
10.5299
10.5349
10.5368
10.5418
10.5436
10.8563
10.3147
10.3097
10.1493
10.1543
10.1443
10.435
10.43
10.2332
10.8526
10.8458
10.5616
10.5667
10.5648
10.5717
10.5698
10.5767
10.5748
10.5817
10.5798
10.5867
10.5849
10.5917
10.5899
10.5967
10.5986
10.5949
10.6036
10.6054
10.6104
10.6123
10.6173
10.6191
10.6241
10.6259
10.631
10.6328
10.6223
10.6378
10.6396
10.6447
10.6465
10.6515
10.6533
10.6278
10.6584
10.6602
10.6552
10.662
10.667
10.6689
10.6497
10.5735
10.6639
10.6707
10.6757
10.6776
10.6826
10.6844
10.6894
10.6912
10.2751
10.3573
10.6657
10.6963
10.6981
10.6931
10.6999
10.8613
10.8632
10.54
10.7049
10.7068
10.7018
10.7086
10.3447
10.3516
10.3566
10.3584
10.3634
10.3653
10.3602
10.3671
10.3621
10.3689
10.374
10.3758
10.3708
10.3776
10.3827
10.3845
10.3795
10.3863
10.3914
10.3932
10.3881
10.395
10.4
10.4019
10.5486
10.5505
10.7136
10.7155
10.7104
10.7173
10.7123
10.7191
10.7241
10.726
10.721
10.7278
10.7328
10.7347
10.7297
10.7365
10.7415
10.7433
10.7484
10.7502
10.7452
10.752
10.757
10.7589
10.7539
10.7607
10.7557
10.7626
10.7676
10.7694
10.7744
10.7762
10.4927
10.3968
10.4037
10.2328
10.44
10.3692
10.376
10.8407
10.8357
10.8288
10.8307
10.8238
10.8257
10.8188
10.8207
10.8138
10.8157
10.8088
10.8106
10.8038
10.8056
10.7988
10.8006
10.7938
10.7956
10.7888
10.7906
10.7838
10.7856
10.7788
10.7769
10.7719
10.7701
10.765
10.7632
10.7806
10.7582
10.7563
10.7513
10.7495
10.7445
10.7426
10.7376
10.7358
10.7308
10.7289
10.7239
10.722
10.717
10.7152
10.7102
10.7083
10.7033
10.7015
10.6965
10.6946
10.6896
10.6878
10.7133
10.6827
10.6809
10.6859
10.6791
10.4996
10.5349
10.5399
10.3778
10.3829
10.4069
10.674
10.6722
10.288
10.6772
10.6704
10.6653
10.6635
10.6685
10.6616
10.6566
10.6548
10.6598
10.6529
10.6479
10.6461
10.6511
10.6442
10.6392
10.6374
10.6424
10.6355
10.6305
10.6287
10.6337
10.6269
10.6218
10.62
10.625
10.6182
10.6131
10.6113
10.6163
10.6095
10.6044
10.6026
10.5976
10.5958
10.6944
10.5555
10.5573
10.8508
10.8439
10.4945
10.3987
10.4055
10.8682
10.87
10.1475
10.1525
10.1593
10.1575
10.1643
10.1625
10.1694
10.1675
10.3079
10.3129
10.3029
10.4332
10.4382
10.3378
10.7812
10.7831
10.6145
10.7532
10.7545
10.4384
10.7576
10.381
10.3879
10.1744
10.1726
10.5907
10.5889
10.8325
10.8025
10.5014
10.4005
10.4074
10.588
10.593
10.5862
10.5912
10.5844
10.5894
10.5825
10.5875
10.5944
10.5926
10.5994
10.5976
10.6044
10.6026
10.6094
10.6076
10.5623
10.272
10.5418
10.5468
10.5449
10.5518
10.55
10.5568
10.555
10.5619
10.56
10.5669
10.565
10.5719
10.5701
10.5769
10.5751
10.582
10.5801
10.587
10.5851
10.592
10.5901
10.597
10.5952
10.5883
10.5933
10.6002
10.5983
10.5915
10.5965
10.6033
10.6015
10.5946
10.6084
10.5996
10.5928
10.5978
10.5909
10.5959
10.5891
10.5941
10.5872
10.601
10.5922
10.5854
10.5904
10.5835
10.5885
10.5817
10.5867
10.5798
10.5936
10.5748
10.573
10.578
10.5711
10.5822
10.5661
10.5642
10.5693
10.5624
10.5574
10.5555
10.5606
10.5537
10.5487
10.5468
10.5518
10.545
10.54
10.5381
10.5431
10.5363
10.5313
10.5294
10.5344
10.5276
10.5326
10.5257
10.5244
10.5308
10.5239
10.5807
10.7881
10.7899
10.7849
10.7918
10.7968
10.4964
10.8489
10.4876
10.6144
10.875
10.8769
10.5523
10.3847
10.5732
10.4534
10.8175
10.7507
10.3908
10.5008
10.4274
10.7326
10.7875
10.7825
10.2615
10.4926
10.5376
10.5939
10.5871
10.582
10.5802
10.7092
10.5376
10.5189
10.517
10.522
10.5152
10.5202
10.5133
10.5102
10.7279
10.7339
10.4124
10.4142
10.4092
10.4161
10.4865
10.3072
10.3004
10.3483
10.5852
10.5784
10.5734
10.5715
10.5665
10.5647
10.5596
10.5578
10.5528
10.551
10.5459
10.5441
10.386
10.3929
10.7526
10.7868
10.5184
10.5115
10.1607
10.1457
10.4313
10.4363
10.3011
10.296
10.411
10.4179
10.8819
10.8837
10.6126
10.5605
10.7862
10.1794
10.1776
10.5391
10.6983
10.5838
10.5687
10.5537
10.3936
10.5926
10.5663
10.4229
10.4248
10.4197
10.3116
10.3911
10.3979
10.3842
10.5372
10.3022
10.2953
10.3222
10.7187
10.7255
10.5165
10.5097
10.5046
10.5028
10.7936
10.7886
10.7893
10.7843
10.5033
10.4982
10.5989
10.5674
10.4295
10.4345
10.4245
10.88
10.8887
10.8906
10.3428
10.5132
10.3553
10.3603
10.3535
10.3585
10.3517
10.3567
10.3498
10.3548
10.348
10.353
10.3461
10.3512
10.358
10.3562
10.7969
10.3227
10.363
10.3612
10.7457
10.6195
10.6213
10.2942
10.2892
10.3493
10.1844
10.1826
10.1757
10.1808
10.1739
10.1789
10.5834
10.556
10.4266
10.4215
10.3961
10.4029
10.5078
10.501
10.4959
10.4941
10.4991
10.4923
10.5615
10.8856
10.8925
10.8875
10.8943
10.8893
10.8993
10.4379
10.5083
10.368
10.3662
10.373
10.3712
10.378
10.3762
10.3694
10.3744
10.3831
10.7475
10.5322
10.2972
10.2903
10.5318
10.7237
10.7305
10.2665
10.2596
10.7955
10.7905
10.7912
10.7862
10.8962
10.8912
10.5102
10.5152
10.6176
10.6263
10.6281
10.5655
10.5304
10.5354
10.6108
10.5957
10.5566
10.2642
10.4284
10.4234
10.4298
10.4011
10.4079
10.5234
10.4973
10.4904
10.2885
10.2835
10.2816
10.7793
10.7812
10.502
10.5724
10.4226
10.4176
10.1721
10.1771
10.3675
10.3725
10.2874
10.2824
10.2924
10.6331
10.635
10.4165
10.6158
10.2483
10.4302
10.4252
10.4061
10.4129
10.7407
10.4891
10.1839
10.1821
10.1862
10.1913
10.2921
10.3997
10.4148
10.4198
10.418
10.4248
10.423
10.4298
10.428
10.4348
10.433
10.5642
10.5246
10.2766
10.7287
10.7973
10.8023
10.7923
10.7855
10.291
10.4955
10.5286
10.5336
10.5254
10.4886
10.4836
10.4962
10.4398
10.438
10.1648
10.5147
10.5458
10.4719
10.6403
10.729
10.5582
10.4068
10.4579
10.299
10.3397
10.3328
10.3346
10.3278
10.3296
10.4806
10.3411
10.4353
10.4321
10.2748
10.7425
10.7747
10.5023
10.793
10.798
10.3992
10.8981
10.8931
10.5171
10.5222
10.3227
10.427
10.4339
10.5705
10.64
10.6418
10.189
10.1871
10.1803
10.1853
10.1921
10.1903
10.4266
10.8119
10.6089
10.6139
10.7992
10.2646
10.2578
10.4936
10.2855
10.2905
10.4158
10.4108
10.3657
10.3707
10.3775
10.3757
10.5774
10.6468
10.6487
10.4871
10.6072
10.1826
10.3246
10.4289
10.4357
10.6208
10.5267
10.1931
10.1981
10.4868
10.7355
10.7374
10.294
10.3008
10.5317
10.4417
10.5409
10.4467
10.5794
10.7337
10.7268
10.2698
10.2716
10.7999
10.8049
10.1972
10.1953
10.3071
10.4318
10.8421
10.8471
10.8539
10.8521
10.8589
10.857
10.8502
10.8639
10.8552
10.8484
10.8371
10.4784
10.2628
10.256
10.2696
10.2509
10.2491
10.2441
10.2423
10.2373
10.2473
10.2404
10.2455
10.7357
10.7942
10.6071
10.6121
10.2679
10.425
10.8999
10.8949
10.9049
10.524
10.5291
10.519
10.8533
10.8465
10.7339
10.3209
10.3159
10.3141
10.4268
10.7375
10.7444
10.7289
10.727
10.645
10.309
10.3072
10.4307
10.4376
10.2386
10.2436
10.1785
10.2837
10.2887
10.3689
10.3739
10.6537
10.6555
10.422
10.5755
10.5687
10.409
10.414
10.4039
10.2022
10.2003
10.1935
10.1985
10.5249
10.5199
10.7424
10.7443
10.8881
10.89
10.4485
10.8825
10.6505
10.6574
10.6624
10.6642
10.4535
10.568
10.3799
10.4918
10.4849
10.2647
10.2666
10.3807
10.7318
10.725
10.4211
10.722
10.7202
10.7394
10.7462
10.8968
10.8918
10.885
10.8868
10.3022
10.3003
10.1999
10.1949
10.2049
10.2958
10.3026
10.6053
10.6003
10.6103
10.5299
10.5367
10.1839
10.4319
10.63
10.4766
10.462
10.3558
10.8232
10.3314
10.3264
10.3333
10.4214
10.6899
10.5261
10.3474
10.3543
10.3525
10.3593
10.3575
10.3644
10.3625
10.3694
10.3676
10.3712
10.3762
10.3781
10.3831
10.3849
10.39
10.3881
10.3918
10.4978
10.277
10.3607
10.5203
10.8068
10.8118
10.8018
10.5309
10.536
10.8515
10.8447
10.5824
10.5737
10.5669
10.4325
10.4394
10.3282
10.3351
10.6692
10.671
10.2072
10.204
10.3968
10.3987
10.3936
10.4005
10.3955
10.4023
10.88
10.8818
10.7493
10.7511
10.3973
10.4042
10.4414
10.4395
10.3635
10.801
10.42
10.4218
10.2597
10.2505
10.2486
10.8415
10.7412
10.7481
10.7152
10.7133
10.796
10.5719
10.565
10.8583
10.2418
10.2468
10.1917
10.1967
10.4071
10.4121
10.2819
10.2869
10.2937
10.2919
10.2769
10.2987
10.2969
10.367
10.372
10.33
10.3369
10.3214
10.6761
10.6779
10.6729
10.6797
10.875
10.8768
10.7403
10.273
10.2661
10.2711
10.8029
10.2031
10.4464
10.4445
10.4514
10.4495
10.4427
10.4477
10.4409
10.4459
10.4527
10.4509
10.4577
10.4559
10.4627
10.4609
10.4678
10.4659
10.4728
10.4709
10.4778
10.4759
10.4828
10.481
10.4878
10.486
10.4928
10.491
10.4978
10.496
10.5029
10.5047
10.5097
10.5116
10.501
10.5166
10.5184
10.454
10.4892
10.4691
10.5234
10.5253
10.439
10.5134
10.5303
10.5216
10.5321
10.4846
10.5371
10.3607
10.3657
10.3589
10.3639
10.357
10.3621
10.3689
10.3671
10.3602
10.3653
10.3584
10.3634
10.3566
10.3616
10.3547
10.3598
10.3529
10.3579
10.3511
10.3685
10.3739
10.3561
10.3493
10.363
10.3442
10.3424
10.3474
10.3406
10.3355
10.5243
10.7561
10.758
10.7543
10.753
10.7598
10.7648
10.7667
10.7717
10.7617
10.4058
10.4343
10.4412
10.2953
10.2935
10.6847
10.6866
10.6816
10.6884
10.6934
10.6953
10.6902
10.6971
10.7021
10.7039
10.8496
10.8428
10.518
10.513
10.21
10.2081
10.3456
10.3387
10.2017
10.1967
10.8078
10.87
10.8718
10.5349
10.5418
10.4554
10.4604
10.4586
10.6523
10.2615
10.3991
10.406
10.4646
10.7685
10.7635
10.3515
10.5229
10.4463
10.4481
10.443
10.4499
10.4408
10.2643
10.2593
10.2693
10.3037
10.3019
10.4899
10.4968
10.4831
10.4781
10.73
10.7231
10.415
10.4168
10.7083
10.7065
10.8837
10.8987
10.8086
10.8036
10.5378
10.5429
10.541
10.5479
10.546
10.5529
10.5511
10.558
10.6034
10.6084
10.6153
10.539
10.534
10.2976
10.2908
10.3045
10.3095
10.4529
10.4037
10.2547
10.7431
10.7499
10.8651
10.1671
10.1653
10.1602
10.1584
10.1534
10.1516
10.1466
10.5442
10.304
10.4504
10.2678
10.2747
10.4656
10.3466
10.7369
10.2529
10.3894
10.6062
10.4515
10.8308
10.57
10.8478
10.841
10.836
10.8341
10.8391
10.8323
10.6135
10.3319
10.3387
10.4274
10.709
10.7108
10.4053
10.4103
10.24
10.245
10.1898
10.1949
10.2017
10.1999
10.1848
10.275
10.27
10.295
10.3001
10.3069
10.3051
10.3119
10.3101
10.6742
10.544
10.2885
10.2866
10.2917
10.2848
10.2898
10.283
10.288
10.2812
10.2761
10.2743
10.2793
10.2725
10.2675
10.2656
10.2707
10.2638
10.2688
10.262
10.267
10.2602
10.2551
10.2533
10.2483
10.2465
10.2583
10.2414
10.2396
10.2346
10.2328
10.2378
10.2309
10.236
10.2291
10.2241
10.2223
10.2273
10.2204
10.2154
10.2136
10.2186
10.2117
10.2067
10.2049
10.1999
10.198
10.2031
10.1962
10.1912
10.1894
10.2432
10.1944
10.1875
10.1825
10.1807
10.1857
10.1789
10.1839
10.1771
10.172
10.1702
10.1752
10.1684
10.1734
10.1666
10.1615
10.1597
10.1647
10.1579
10.1629
10.1561
10.151
10.1492
10.1442
10.1424
10.1611
10.1373
10.1355
10.1405
10.1337
10.1287
10.1269
10.1319
10.125
10.1301
10.1232
10.1182
10.1164
10.1214
10.1145
10.1196
10.1127
10.1178
10.1109
10.1059
10.1041
10.1091
10.1023
10.1073
10.1004
10.1055
10.0986
10.1037
10.0936
10.0918
10.0868
10.085
10.0799
10.099
10.0781
10.0832
10.0731
10.0749
10.0681
10.1113
10.1123
10.0663
10.0612
10.0699
10.1392
10.1679
10.1661
10.2606
10.4449
10.4517
10.215
10.2168
10.2131
10.2036
10.1986
10.865
10.8668
10.8731
10.411
10.4129
10.4078
10.4147
10.4197
10.4215
10.4165
10.4234
10.4284
10.4302
10.4572
10.4522
10.7531
10.7115
10.7046
10.6996
10.6978
10.7028
10.6959
10.6921
10.3904
10.4252
10.4321
10.4371
10.4389
10.4339
10.4408
10.4357
10.4426
10.4376
10.4445
10.4495
10.4513
10.4463
10.4532
10.4564
10.3438
10.3456
10.3405
10.3474
10.3524
10.3543
10.3492
10.3561
10.4654
10.4636
10.3611
10.363
10.3579
10.3648
10.4481
10.455
10.8657
10.8707
10.4237
10.4186
10.455
10.495
10.4734
10.4715
10.4762
10.4712
10.2624
10.2675
10.5399
10.5468
10.5331
10.5561
10.563
10.3169
10.3151
10.41
10.2555
10.2728
10.2797
10.2815
10.2865
10.2883
10.2934
10.2952
10.3002
10.302
10.307
10.3089
10.3039
10.3107
10.3057
10.3125
10.3176
10.3075
10.3194
10.3244
10.3262
10.3313
10.3294
10.3363
10.3344
10.3413
10.3431
10.3481
10.3463
10.3531
10.355
10.36
10.3582
10.365
10.8291
10.735
10.7419
10.3989
10.1246
10.6909
10.6891
10.6941
10.6873
10.6822
10.6804
10.6854
10.6786
10.6736
10.6717
10.6667
10.6649
10.6599
10.658
10.6699
10.653
10.6512
10.6462
10.6443
10.6393
10.6375
10.6325
10.6306
10.6356
10.6288
10.6238
10.6219
10.6169
10.6151
10.6101
10.6082
10.6032
10.6338
10.6133
10.6014
10.5964
10.5945
10.5895
10.6119
10.5877
10.5827
10.5927
10.5845
10.5777
10.717
10.7344
10.7979
10.791
10.8047
10.5018
10.5649
10.5699
10.568
10.5749
10.573
10.5799
10.5781
10.5849
10.5831
10.59
10.5881
10.595
10.5931
10.6
10.5981
10.605
10.6032
10.61
10.6082
10.615
10.6132
10.6201
10.6182
10.6251
10.6232
10.6301
10.6282
10.6351
10.6332
10.6401
10.6383
10.6451
10.6433
10.6364
10.6414
10.6483
10.6464
10.6533
10.6514
10.6583
10.6565
10.6496
10.6546
10.6615
10.6596
10.6527
10.6578
10.6646
10.6628
10.6559
10.6609
10.6541
10.6591
10.6522
10.6572
10.6503
10.6554
10.6485
10.6678
10.6535
10.6466
10.6517
10.6448
10.6585
10.6498
10.6429
10.6398
10.6472
10.648
10.6411
10.6461
10.6392
10.653
10.6342
10.6324
10.6274
10.6255
10.6345
10.6205
10.6186
10.6223
10.6443
10.6237
10.6168
10.6118
10.6099
10.6149
10.6081
10.6031
10.6012
10.5962
10.5944
10.5994
10.5925
10.5875
10.5856
10.5907
10.5838
10.5788
10.5769
10.582
10.5751
10.5801
10.5733
10.5701
10.1448
10.1498
10.1398
10.1416
10.1347
10.1366
10.1297
10.1315
10.1247
10.1265
10.1197
10.1215
10.1147
10.1165
10.1097
10.1115
10.1047
10.1065
10.0996
10.1133
10.1014
10.0946
10.3652
10.3602
10.3702
10.0594
10.0544
10.2816
10.4467
10.4536
10.5769
10.3597
10.3666
10.7158
10.7176
10.7126
10.7195
10.6204
10.2067
10.2049
10.5112
10.5062
10.508
10.5011
10.503
10.3438
10.3506
10.4961
10.498
10.86
10.8618
10.8687
10.8637
10.8568
10.8587
10.8518
10.8537
10.8468
10.8487
10.8418
10.8437
10.8368
10.8387
10.8505
10.8655
10.2926
10.2857
10.6066
10.3113
10.3163
10.8318
10.8337
10.5632
10.5582
10.22
10.2182
10.2054
10.2104
10.2004
10.0645
10.5758
10.5708
10.2565
10.8956
10.4746
10.5742
10.4861
10.2282
10.3699
10.2391
10.6295
10.5263
10.6622
10.5181
10.4917
10.3122
10.4913
10.4932
10.4862
10.4881
10.495
10.4899
10.4969
10.4918
10.4987
10.4849
10.4936
10.5006
10.4955
10.5024
10.5075
10.4973
10.4904
10.5481
10.7704
10.7654
10.7585
10.7604
10.4862
10.4811
10.3291
10.2757
10.2784
10.4634
10.5859
10.3132
10.9068
10.9118
10.9137
10.9187
10.9168
10.9236
10.9218
10.9286
10.9267
10.9336
10.9317
10.9387
10.9364
10.9297
10.9437
10.9345
10.9279
10.9329
10.926
10.6836
10.5353
10.7734
10.6047
10.45
10.251
10.1479
10.4564
10.438
10.2428
10.5917
10.5973
10.7373
10.6562
10.4325
10.4984
10.5053
10.5035
10.5103
10.5085
10.5154
10.5172
10.5135
10.5222
10.5241
10.5291
10.5309
10.536
10.5378
10.5066
10.5117
10.5048
10.5098
10.503
10.5167
10.5428
10.5447
10.5397
10.5465
10.5415
10.5484
10.5433
10.5502
10.5452
10.508
10.5011
10.541
10.5521
10.547
10.5061
10.4993
10.5479
10.4943
10.4924
10.4974
10.4906
10.4956
10.4887
10.4938
10.4869
10.4837
10.4919
10.4851
10.5402
10.542
10.4901
10.4832
10.4882
10.4814
10.4864
10.4795
10.4745
10.4727
10.4777
10.4708
10.546
10.5534
10.4677
10.5489
10.5439
10.537
10.5388
10.4874
10.8401
10.3797
10.3865
10.3815
10.3884
10.3833
10.3902
10.3852
10.392
10.387
10.3939
10.3888
10.3957
10.3907
10.3975
10.3925
10.3994
10.3944
10.4012
10.3962
10.3893
10.3912
10.3843
10.403
10.3862
10.3793
10.3811
10.388
10.3743
10.3952
10.3775
10.383
10.3898
10.4007
10.4081
10.4099
10.3848
10.3917
10.382
10.3866
10.3798
10.3935
10.3985
10.4149
10.4167
10.4003
10.4054
10.4072
10.4122
10.3885
10.4218
10.4236
10.4199
10.325
10.2336
10.7799
10.5835
10.8099
10.3122
10.3191
10.3173
10.3017
10.8058
10.4672
10.1369
10.4283
10.2949
10.712
10.7756
10.5272
10.3063
10.7754
10.682
10.5999
10.6846
10.5337
10.4042
10.2437
10.4128
10.636
10.3731
10.3209
10.5262
10.2168
10.5785
10.1757
10.2587
10.4695
10.48
10.5393
10.299
10.6589
10.6607
10.6538
10.6435
10.4413
10.6065
10.6134
10.6115
10.6184
10.6165
10.6234
10.6216
10.6284
10.6303
10.6353
10.6371
10.6266
10.6197
10.6247
10.6179
10.6421
10.644
10.6229
10.616
10.649
10.6508
10.621
10.6142
10.6092
10.6073
10.6123
10.6055
10.6005
10.5986
10.6036
10.5968
10.6471
10.6297
10.5918
10.5899
10.6458
10.6527
10.6577
10.6595
10.5949
10.5881
10.5831
10.5812
10.5762
10.5744
10.6545
10.6614
10.6664
10.6682
10.6733
10.6751
10.6801
10.682
10.687
10.6888
10.6938
10.7392
10.3186
10.7252
10.416
10.513
10.5282
10.5264
10.5332
10.5314
10.5383
10.5245
10.5296
10.5227
10.5204
10.6213
10.6195
10.6263
10.6245
10.6313
10.6295
10.6364
10.6345
10.6277
10.6327
10.6258
10.6382
10.6432
10.645
10.6501
10.6519
10.6569
10.6588
10.6638
10.6656
10.6551
10.6308
10.624
10.619
10.6171
10.6706
10.6725
10.6675
10.6743
10.6377
10.6693
10.6761
10.6812
10.683
10.678
10.6848
10.6899
10.6917
10.6867
10.6935
10.6986
10.7004
10.7054
10.7073
10.7123
10.7141
10.7091
10.716
10.721
10.7228
10.7278
10.7297
10.7347
10.7365
10.7415
10.7434
10.7484
10.7502
10.7552
10.7571
10.7621
10.7639
10.7689
10.7708
10.7758
10.711
10.7315
10.7521
10.6221
10.6153
10.6103
10.6084
10.7328
10.6034
10.6016
10.5966
10.5947
10.5897
10.5879
10.5829
10.581
10.576
10.7658
10.7041
10.2277
10.3478
10.5271
10.4365
10.6358
10.5718
10.5694
10.5675
10.5725
10.5321
10.4251
10.4905
10.4312
10.4362
10.4293
10.4343
10.4275
10.4325
10.4393
10.4375
10.4444
10.4425
10.4494
10.4475
10.4544
10.4525
10.4594
10.4576
10.4644
10.4626
10.4694
10.4676
10.4744
10.4726
10.4794
10.4776
10.4612
10.4813
10.4863
10.4713
10.4225
10.5215
10.5284
10.5266
10.5334
10.5316
10.5384
10.5403
10.5366
10.5453
10.5471
10.5297
10.273
10.1652
10.3212
10.3281
10.3231
10.235
10.6852
10.5105
10.6097
10.2903
10.1552
10.1323
10.1341
10.3113
10.3561
10.4798
10.4019
10.5717
10.7205
10.5902
10.1218
10.2588
10.7682
10.6811
10.3927
10.5239
10.2743
10.2679
10.2944
10.2127
10.6844
10.5071
10.2017
10.1948
10.2624
10.4487
10.2232
10.6569
10.3703
10.3685
10.5057
10.5107
10.5039
10.5089
10.5157
10.4413
10.4395
10.4345
10.4326
10.4276
10.4258
10.4308
10.424
10.429
10.4295
10.4545
10.5571
10.5589
10.4953
10.7931
10.7913
10.7981
10.7963
10.7894
10.7944
10.8013
10.7876
10.7926
10.7857
10.7907
10.7839
10.7889
10.7821
10.7871
10.7802
10.7957
10.7752
10.7734
10.7784
10.7715
10.7665
10.7647
10.7697
10.7629
10.7579
10.756
10.761
10.7542
10.7592
10.7523
10.7473
10.7455
10.7505
10.7405
10.7013
10.4706
10.6885
10.3266
10.6415
10.4003
10.444
10.4549
10.5401
10.5757
10.5738
10.5688
10.567
10.562
10.5601
10.5652
10.5583
10.5633
10.5565
10.5615
10.5546
10.5496
10.5478
10.5428
10.5409
10.5359
10.5341
10.5597
10.5665
10.5638
10.557
10.5588
10.6537
10.1775
10.6794
10.2072
10.1999