/*--------------------------------*- C++ -*----------------------------------*\
  =========                 |
  \\      /  F ield         | OpenFOAM: The Open Source CFD Toolbox
   \\    /   O peration     | Website:  https://openfoam.org
    \\  /    A nd           | Version:  6
     \\/     M anipulation  |
\*---------------------------------------------------------------------------*/
FoamFile
{
    version     2.0;
    format      ascii;
    class       volScalarField;
    location    "864000";
    object      Cw;
}
// * * * * * * * * * * * * * * * * * * * * * * * * * * * * * * * * * * * * * //

dimensions      [1 -3 0 0 0 0 0];

internalField   nonuniform List<scalar> 
11831
(
0
0
0
0
0
0
0
0
0
0
0
0
0
0
0
0
0
0
0
0
0
0
0
0
0
0
0
0
0
0
0
0
0
0
0
0
0
0
0
0
0
0
0
0
0
0
0
0
0
0
0
0
0
0
0
0
0
0
0
0
0
0
0
0
0
0
0
0
0
0
0
0
0
0
0
0
0
0
0
0
0
0
0
0
0
0
0
0
0
0
0
0
0
0
0
0
0
0
0
0
0
0
0
0
0
0
0
0
0
0
0
0
0
0
0
0
0
0
0
0
0
0
0
0
0
0
0
0
0
0
0
0
0
0
0
0
0
0
0
0
0
0
0
0
0
0
0
0
0
0
0
0
0
0
0
0
0
0
0
0
0
0
0
0
0
0
0
0
0
0
0
0
0
0
0
0
0
0
0
0
0
0
0
0
0
0
0
0
0
0
0
0
0
0
0
0
0
0
0
0
0
0
0
0
0
0
0
0
0
0
0
0
0
0
0
0
0
0
0
0
0
0
0
0
0
0
0
0
0
0
0
0
0
0
0
0
0
0
0
0
0
0
0
0
0
0
0
0
0
0
0
0
0
0
0
0
0
0
0
0
0
0
0
0
0
0
0
0
0
0
0
0
0
0
0
0
0
0
0
0
0
0
0
0
0
0
0
0
0
0
0
0
0
0
0
0
0
0
0
0
0
0
0
0
0
0
0
0
0
0
0
0
0
0
0
0
0
0
0
0
0
0
0
0
0
0
0
0
0
0
0
0
0
0
0
0
0
0
0
0
0
0
0
0
0
0
0
0
0
0
0
0
0
0
0
0
0
0
0
0
0
0
0
0
0
0
0
0
0
0
0
0
0
0
0
0
0
0
0
0
0
0
0
0
0
0
0
0
0
0
0
0
0
0
0
0
0
0
0
0
5.29344e-120
-5.3948e-53
-4.11026e-48
1.75457e-119
7.13516e-67
9.58627e-121
5.99173e-35
1.99847e-116
1.15474e-118
7.33421e-125
-9.75965e-41
-6.43092e-61
4.13131e-26
5.01275e-115
-2.87152e-80
5.63322e-123
-2.23559e-73
1.12699e-126
4.20294e-28
6.22136e-119
9.55628e-116
2.21877e-128
-1.35485e-19
4.15255e-92
-2.57359e-120
6.54296e-131
7.38355e-19
5.57112e-82
1.39216e-132
-2.62673e-101
4.09964e-115
-7.49865e-15
3.13327e-135
6.6407e-92
1.93022e-122
1.04394e-12
1.67487e-136
-1.46218e-108
-4.82747e-115
-5.63746e-12
6.55881e-139
-4.54977e-99
-1.71602e-124
3.03196e-09
5.88386e-141
-6.7624e-116
-8.57927e-116
8.64628e-10
-6.88415e-119
-1.12377e-47
3.11639e-121
-3.43211e-53
5.22599e-142
-1.68503e-104
6.8738e-61
-5.08438e-120
4.49696e-40
-5.83105e-118
-2.72115e-67
1.16536e-124
4.19112e-121
5.5152e-126
-1.98107e-73
-2.69984e-33
5.68873e-08
-1.13037e-118
-1.65997e-29
-4.93504e-116
1.40606e-145
-7.07844e-110
3.06575e-128
3.38559e-07
5.91151e-145
-1.33159e-122
2.39043e-115
9.73544e-09
4.25224e-129
3.46675e-78
7.47448e-133
5.59843e-87
4.23453e-96
1.78563e-130
-1.02886e-85
4.73573e-125
-8.67041e-115
4.84337e-23
2.67509e-121
3.21923e-120
-7.59066e-23
-1.10575e-15
2.18747e-114
4.55161e-17
-1.13594e-113
3.28473e-148
2.30584e-08
-1.12897e-129
5.96411e-148
2.00152e-116
-6.70207e-128
5.21061e-10
-5.23779e-111
3.15843e-138
1.62514e-137
-9.66533e-98
6.07764e-143
-2.10515e-119
7.26715e-135
-5.50476e-105
1.59645e-140
-4.65097e-102
1.2588e-143
-6.62347e-107
1.02582e-118
-8.94074e-50
1.06826e-43
-3.48493e-119
-4.30437e-70
1.57725e-125
1.56666e-119
-3.02735e-46
9.59474e-120
-2.35429e-56
5.90319e-122
-4.61465e-77
2.54487e-120
-1.30629e-50
-8.55938e-56
-2.91999e-122
1.09152e-75
1.19918e-127
1.03611e-126
1.0056e-115
1.29327e-88
2.04303e-10
-2.01184e-32
1.61468e-116
9.10306e-64
-1.10076e-120
-1.35e-27
-2.02535e-115
4.38275e-114
7.89774e-14
-3.70825e-21
2.9204e-125
1.06901e-120
4.79209e-128
-8.19505e-123
-4.76711e-119
-1.24941e-115
-2.64164e-07
-8.15555e-11
3.34475e-71
-1.98653e-08
4.11413e-124
-1.34736e-63
-3.59854e-36
8.50372e-115
-8.85079e-120
-1.61875e-32
-2.01874e-25
-2.08722e-120
6.82725e-37
9.44524e-118
-5.78622e-09
-3.00129e-116
3.53113e-150
1.13743e-10
-3.17194e-131
-7.28838e-120
1.2243e-118
2.97033e-118
5.82792e-117
7.20404e-117
1.60346e-115
4.75853e-116
1.23454e-114
-4.18392e-115
-5.29905e-114
-2.74862e-113
-5.68876e-112
-7.28391e-112
-1.68578e-110
-1.13545e-110
-3.82488e-109
-2.70973e-109
-5.60414e-108
-2.33813e-108
-7.04884e-107
2.55605e-107
4.58148e-106
1.2742e-105
2.71909e-104
3.31153e-104
7.34023e-103
6.68643e-103
1.51281e-101
9.24564e-102
2.11972e-100
3.39748e-100
4.84251e-99
7.58297e-99
1.09202e-97
1.68074e-97
2.45236e-96
3.70058e-96
5.45682e-95
8.0873e-95
1.2073e-93
1.75294e-93
2.64738e-92
3.76764e-92
5.76636e-91
8.04424e-91
1.24558e-89
1.70559e-89
2.66813e-88
3.60247e-88
5.66099e-87
2.71415e-87
5.71148e-86
1.18893e-85
1.18834e-84
2.46879e-84
2.44214e-83
7.72369e-84
1.54076e-82
4.95095e-82
3.02165e-81
6.4362e-82
1.20055e-80
5.81473e-80
2.18756e-79
3.11911e-80
5.17546e-79
4.09886e-80
4.69673e-79
8.2574e-78
2.91478e-78
1.23966e-76
-1.79078e-77
-3.6558e-77
-9.21666e-76
-1.79669e-75
-2.07886e-74
-1.14948e-76
7.11569e-75
-4.1251e-73
3.69651e-73
8.59892e-73
1.94723e-71
1.28438e-71
4.35693e-70
1.78925e-70
3.84174e-69
1.16261e-69
2.43924e-68
8.18386e-68
5.07805e-67
1.26588e-67
2.58659e-66
1.05054e-65
5.24853e-65
2.15793e-64
1.05764e-63
2.23377e-64
4.41829e-63
2.11713e-62
8.65656e-62
1.63892e-62
3.1762e-61
1.6828e-60
6.08806e-60
1.02805e-60
1.92699e-59
2.90937e-60
1.15773e-58
3.57137e-58
2.17768e-57
6.55582e-57
4.06067e-56
1.19121e-55
7.49018e-55
2.14253e-54
1.3683e-53
3.81255e-53
2.47182e-52
4.7835e-98
6.71111e-52
4.41807e-51
1.16803e-50
1.60429e-51
7.8058e-50
2.6555e-50
4.76505e-49
1.44426e-49
2.63019e-48
2.71805e-50
3.40682e-51
7.0478e-49
5.61503e-50
6.44927e-51
1.30401e-47
3.03217e-48
1.03051e-49
1.08583e-50
5.70346e-47
1.12333e-47
1.67721e-49
1.6229e-50
2.15233e-46
2.41439e-49
2.14759e-50
3.41561e-47
6.71007e-46
3.06707e-49
2.50897e-50
7.28506e-47
1.51481e-45
3.42719e-49
2.58797e-50
1.25496e-47
3.38188e-49
2.35975e-50
7.72637e-46
-7.75886e-46
2.9244e-49
1.87778e-50
-1.4443e-44
2.19076e-49
1.28959e-50
-2.57525e-45
-4.91192e-44
1.40327e-49
7.52738e-51
7.18052e-52
3.79902e-52
3.77913e-53
1.79082e-53
1.87453e-54
7.7985e-55
8.71001e-56
3.06573e-56
3.75531e-57
9.98336e-58
1.46166e-58
2.34702e-59
4.94208e-60
-5.84837e-62
1.25892e-61
-6.06558e-62
4.7299e-64
-7.15949e-63
-2.78162e-64
-3.08242e-64
-3.1678e-65
-1.19194e-65
-1.35177e-66
-3.95428e-67
-4.84443e-45
-5.17313e-68
-9.89318e-44
-9.02079e-43
3.71358e-57
-2.266e-66
-1.44812e-68
-1.99723e-42
-1.59998e-41
-8.87066e-46
7.18455e-67
7.13488e-68
-3.97886e-41
-2.8218e-40
-7.88064e-40
-5.18792e-39
8.35167e-67
3.60183e-68
-1.52151e-38
-9.41231e-38
2.96761e-67
9.81972e-69
-2.89499e-37
-1.67755e-36
-5.42942e-36
-2.93634e-35
5.14783e-68
5.65419e-70
-4.04322e-37
-9.98379e-35
-5.0426e-34
-1.79402e-33
-8.42008e-33
-1.48665e-68
-1.71071e-69
-5.73835e-71
-7.46489e-71
-6.87041e-72
-2.83921e-72
-3.04358e-32
-1.33437e-31
-6.14219e-70
-3.08839e-73
-5.06849e-31
-1.82675e-30
-9.7119e-74
-8.33406e-30
-1.4644e-29
-1.27871e-74
-1.41391e-28
-9.53246e-29
-2.979e-75
-2.04627e-29
-2.34599e-27
-1.00618e-28
7.5095e-50
-4.36158e-76
-3.79007e-26
2.84388e-26
8.14289e-26
1.44683e-24
6.6203e-25
1.06967e-23
3.35742e-24
5.11362e-23
1.25977e-23
1.81322e-22
3.65767e-23
7.58843e-22
2.53537e-21
1.09521e-20
1.4159e-47
1.81158e-45
9.51577e-47
2.36049e-46
1.12714e-47
-1.99988e-47
-2.48468e-48
-5.63577e-47
-4.87372e-48
-3.97014e-47
-3.10358e-48
-4.81794e-49
-3.61386e-50
4.31059e-51
3.75477e-52
6.4104e-53
6.10023e-54
7.02354e-54
6.60213e-55
3.29671e-55
2.63717e-56
7.34663e-53
4.55133e-57
3.13245e-58
-1.97165e-58
-1.00867e-59
-2.84281e-59
-1.40378e-60
3.43573e-20
1.53384e-19
-7.95006e-77
-9.10464e-61
-5.20938e-62
-9.66365e-63
-8.56155e-64
-1.46907e-59
-1.38232e-77
4.49958e-19
2.07916e-18
-1.31139e-67
2.8086e-63
1.9257e-64
-1.64152e-78
4.56212e-78
6.86601e-79
1.23258e-77
5.67708e-18
2.72002e-17
3.36166e-64
1.94049e-65
-4.00023e-79
1.40897e-89
5.15784e-79
3.42007e-78
1.24254e-65
6.89394e-67
6.87544e-17
1.16591e-17
3.42284e-16
5.53782e-67
2.87526e-68
9.04042e-80
2.61012e-79
1.08752e-65
1.71201e-81
-8.56684e-80
2.76261e-68
1.36224e-69
1.51944e-69
6.67064e-71
7.60504e-71
3.47728e-72
3.29685e-72
1.57217e-73
1.09198e-73
4.92874e-75
7.05653e-75
2.48979e-76
1.33217e-76
8.49293e-78
1.26985e-77
4.84845e-79
8.78316e-80
7.77163e-81
2.69893e-80
4.56224e-82
3.60069e-82
7.95939e-16
4.12732e-15
1.45144e-81
3.20477e-83
3.71033e-83
-7.76905e-81
-4.888e-80
8.76475e-15
4.74781e-14
1.76542e-14
2.12041e-13
6.01675e-14
7.56266e-13
-1.43299e-81
-5.49086e-81
-2.78751e-82
1.52646e-13
2.28415e-84
1.58578e-84
2.03219e-12
-9.14026e-83
4.73661e-82
5.18332e-13
2.33266e-13
5.12864e-83
3.66523e-82
9.55214e-81
1.70131e-81
6.1812e-80
3.71505e-83
1.0922e-85
2.78888e-86
-2.93118e-63
2.93681e-81
2.05397e-79
3.50637e-12
1.45961e-48
7.03586e-49
-5.71108e-69
-4.47629e-69
-3.37148e-70
1.65207e-70
-1.00241e-71
6.18083e-71
1.12283e-72
9.45997e-72
2.79809e-73
1.15774e-72
4.01775e-74
1.26808e-73
4.81468e-75
1.28977e-74
5.18933e-76
1.24363e-75
5.23789e-77
1.14493e-76
4.995e-78
1.01742e-77
4.58243e-79
8.74253e-79
4.04372e-80
7.31501e-80
3.46889e-81
5.94362e-81
2.88145e-82
4.70996e-82
2.33417e-83
3.66893e-83
1.36215e-83
1.85212e-84
2.78487e-84
1.43342e-85
2.04832e-85
1.07687e-86
1.48296e-86
7.93975e-88
1.05185e-87
5.72097e-89
7.33498e-89
4.05089e-90
5.08884e-90
9.00274e-89
5.96759e-90
1.00489e-88
6.42517e-90
3.91313e-91
4.12588e-91
6.50177e-90
3.99908e-91
2.59126e-92
2.48133e-92
3.72773e-91
2.2388e-92
1.51667e-93
1.33867e-93
4.16738e-89
9.20421e-95
7.8873e-95
1.09524e-93
6.13049e-95
4.52383e-96
3.50987e-96
4.76477e-95
2.64352e-96
3.54717e-95
1.92052e-96
1.48646e-97
1.05253e-97
1.2757e-96
6.72406e-98
5.68414e-99
3.58103e-99
3.06637e-100
1.88575e-100
1.63989e-101
9.88819e-102
7.89384e-97
8.6982e-103
5.10045e-103
4.56137e-104
2.61192e-104
2.84226e-103
1.37774e-104
1.31238e-105
6.96492e-106
7.40295e-105
6.65522e-107
3.47031e-107
7.06601e-82
3.35459e-108
1.72061e-108
2.10975e-87
-1.01864e-87
-3.03736e-86
1.67934e-109
-6.67692e-14
-2.0304e-87
1.44244e-47
6.08141e-48
-3.62832e-80
-4.71772e-79
7.48645e-13
-4.48186e-86
1.33754e-46
4.6689e-47
8.40348e-110
8.33422e-111
-9.03411e-89
-9.28431e-89
-2.16735e-109
7.27099e-104
-1.57052e-12
1.14247e-45
2.87631e-46
-5.9456e-79
-1.87124e-77
-6.00703e-90
-2.53371e-90
8.63181e-45
8.31461e-46
4.09455e-111
4.10849e-112
7.92442e-112
-1.80364e-11
3.15299e-11
5.98043e-56
5.18236e-44
-1.34613e-44
1.36278e-43
-3.79274e-43
-2.14632e-44
-1.91507e-43
-7.83938e-45
-4.42905e-44
-1.3802e-42
-1.02254e-43
9.31346e-45
2.67536e-43
1.30556e-44
1.01777e-43
3.67788e-45
1.69234e-44
6.04229e-43
1.84864e-46
-4.28322e-45
-5.29439e-46
-3.78813e-45
-1.26858e-46
-4.38687e-46
-5.58627e-48
7.84553e-47
8.86407e-48
5.64973e-47
1.43137e-45
1.63674e-48
1.9653e-46
6.9118e-45
-2.24283e-78
-9.43547e-77
-3.01322e-12
3.83921e-113
-1.79268e-10
6.2978e-10
2.18019e-76
2.01294e-113
-1.58423e-91
-3.93499e-92
-1.25048e-09
9.59206e-09
1.90975e-114
7.1236e-113
2.42044e-46
2.20306e-44
-1.85596e-78
9.23032e-80
-1.78239e-76
-5.46938e-09
1.27223e-07
9.69174e-115
9.42493e-116
4.07816e-110
1.0501e-33
3.12286e-72
1.24584e-92
2.11513e-78
6.83627e-87
-2.97936e-93
4.3596e-95
7.60016e-93
7.89458e-94
2.08838e-43
1.72504e-92
-5.63719e-09
1.52599e-06
-4.11281e-45
-3.2607e-44
2.70335e-78
8.44264e-80
-2.48941e-49
4.58421e-116
4.58842e-117
5.57021e-95
5.12043e-95
-5.67301e-08
6.47872e-07
1.6478e-05
4.14623e-58
1.06208e-45
-5.13456e-44
-1.18881e-42
-1.67129e-45
2.46157e-79
4.58925e-81
1.25927e-05
0.000160431
8.29236e-05
0.000668784
0.000210456
0.00141028
2.17096e-117
2.2135e-118
4.223e-118
2.52065e-96
9.29897e-97
2.01414e-119
3.65631e-49
3.20607e-50
0.00477726
0.0108833
-1.80702e-80
-1.65182e-81
-1.7973e-43
-6.59412e-42
1.7054e-48
7.98773e-95
1.06103e-119
3.77313e-119
9.90748e-121
5.59675e-98
1.0002e-98
2.83855e-68
-2.15322e-13
-4.49962e-14
3.78658e-16
4.25694e-14
3.0464e-15
2.95485e-15
1.89041e-16
-9.68593e-17
-1.29664e-17
-1.62165e-17
-1.2692e-18
-1.9742e-19
-4.4333e-21
1.04979e-19
6.66891e-21
-5.13085e-18
0.0295059
0.0728626
-7.8093e-81
-1.77756e-82
-2.54005e-79
-7.49729e-44
-1.53901e-41
-1.64666e-40
-6.70126e-40
-1.92819e-39
-2.09411e-38
-1.60834e-38
-4.85331e-37
7.51688e-37
-4.01482e-36
4.2926e-35
2.01298e-35
1.46316e-33
3.41867e-33
3.33459e-32
1.32134e-31
2.71964e-31
3.22276e-30
1.46592e-31
5.53113e-29
-1.70649e-30
-1.52976e-28
3.29455e-28
-4.56392e-46
1.47297e-51
3.52061e-48
5.50379e-21
3.32503e-22
1.15541e-50
3.26122e-52
-2.99554e-75
-1.0236e-74
-9.14487e-74
-4.26793e-73
-1.0255e-72
-1.33672e-71
-1.39399e-71
-4.12289e-70
3.95114e-103
5.0049e-121
4.82509e-122
1.07628e-99
5.45402e-99
-1.48221e-100
-5.45859e-99
-4.06382e-100
-3.67914e-99
-2.25785e-22
-2.5744e-23
-6.32423e-27
-1.17659e-26
3.14633e-52
-5.44154e-38
-1.13069e-80
-6.24307e-79
3.91285e-28
0.153904
0.408929
0.101988
-1.83871e-100
-1.18998e-23
-1.15438e-24
0.616653
-1.39487e-101
-1.70646e-25
-6.04871e-25
2.32153e-122
2.31332e-123
1.05722e-46
-2.55434e-99
0.0563093
-1.27498e-22
-1.10176e-26
-1.18158e-27
-1.16829e-25
-2.83897e-28
-9.53208e-27
-4.45354e-29
5.84299e-29
4.16715e-30
-4.22553e-30
3.49889e-31
-3.3183e-31
2.61775e-32
-2.18818e-32
1.63902e-33
-1.59161e-33
9.90469e-35
1.23534e-34
8.13386e-36
5.92078e-36
4.98831e-37
-5.46512e-37
-4.23192e-38
2.8817e-38
-2.43523e-39
-3.0023e-39
-1.96626e-40
-2.01317e-41
-1.54401e-42
1.86494e-39
1.38334e-42
8.70689e-44
1.17703e-43
7.36785e-45
6.82954e-45
4.95535e-46
4.36038e-47
2.97095e-48
6.71968e-46
3.69349e-30
-4.68103e-48
-2.75139e-49
1.8535e-42
1.83892
2.91966
4.06237e-80
3.35057e-79
-3.07938e-24
-1.72648e-23
-1.44012e-25
-2.29951e-101
1.07621e-123
1.03287e-122
1.09752e-124
2.09123e-124
9.70534e-126
-3.66367e-49
-2.25274e-50
-3.03415e-53
5.52912e-54
6.34292
10.0422
5.68389e-79
1.47527e-77
-1.66007e-100
1.84694e-125
4.63124e-51
5.42219e-53
-1.37432e-51
-4.18738e-54
-8.44411e-53
-5.21272e-55
1.04774e-54
5.4495e-56
-5.20839e-54
2.6173e-24
6.35924e-24
4.68649e-25
9.66837e-25
7.34454e-26
1.29977e-25
1.01838e-26
1.55807e-26
1.26074e-27
1.67777e-27
1.40479e-28
1.6323e-28
2.10511e-116
-2.08225e-78
-6.5928e-80
-3.86264e-39
-1.93562e-23
-3.18069e-22
-4.65075e-23
-1.4801e-21
-1.02701e-23
-3.17858e-21
-2.75817e-20
-1.06703e-19
2.9841e-21
-1.70143e-19
-2.00987e-18
-6.27582e-18
-1.33864e-17
-1.21082e-16
-9.73483e-93
1.92246e-26
2.59539e-17
-8.63076e-16
7.44255e-56
4.29394e-57
-2.65988e-79
-9.78932e-81
4.90587e-125
5.25112e-58
3.43739e-59
1.82588e-49
2.67906e-102
8.57436e-127
-1.62958e-80
-8.93915e-82
1.41523e-29
1.44771e-29
-3.43549e-54
-4.9248e-56
4.65254e-15
-1.19308e-15
-6.23372e-18
15.5727
23.7514
-6.21209e-83
-3.51208e-84
-1.79297e-84
-5.71475e-86
-5.16115e-86
5.51483e-88
-1.12117e-87
7.17092e-89
-2.14116e-89
3.19616e-90
-3.0964e-91
2.70056e-91
6.67807e-93
9.08007e-93
5.48038e-94
2.59082e-94
3.41932e-89
2.60696e-95
-1.02127e-94
-1.11736e-96
-8.94303e-95
8.57466e-96
1.19907e-95
-2.35763e-96
-9.87114e-96
2.05948e-97
-9.69338e-97
-7.99371e-97
1.99594e-97
-5.867e-98
-9.40019e-97
-3.14989e-98
5.05268e-97
-2.66662e-98
2.31372e-54
5.53993e-56
4.8151e-55
-4.75751e-98
1.97525e-78
7.04086e-77
7.10985e-101
-6.9682e-82
-4.73915e-83
-3.62901e-83
-4.689e-84
-1.36699e-84
-1.80384e-85
-4.25317e-86
-6.25482e-87
-1.14248e-87
-2.0152e-88
-2.42711e-89
-5.92687e-90
-2.37934e-91
-1.48143e-91
-8.82739e-91
2.6232e-92
-2.67435e-92
-1.10028e-91
-4.03067e-93
-6.71401e-93
-3.63798e-94
-1.8012e-94
-1.98084e-95
1.09685e-95
-5.56274e-97
5.40213e-96
-1.54976e-95
1.00796e-97
8.50346e-97
2.34804e-98
1.07542e-97
3.41406e-99
1.20281e-98
2.10029e-94
4.13082e-100
1.24735e-99
3.30932e-98
3.25456e-99
1.24496e-100
3.01144e-100
5.36237e-100
-4.07178e-85
6.49404e-99
2.12509e-100
2.5308e-101
-2.55689e-102
8.45878e-103
-1.58597e-102
-4.43092e-105
-2.10832e-103
1.56431e-56
5.71093e-56
-1.14277e-99
1.51996e-126
-5.16261e-105
-1.98232e-104
-4.29273e-103
-1.32414e-104
-9.359e-100
-1.72599e-105
1.05277e-105
7.99208e-104
1.14917e-104
-2.30797e-59
-1.54342e-60
2.24727e-60
-9.19174e-62
1.38138e-61
-5.38617e-63
-6.45029e-63
-4.34679e-64
-3.90339e-65
-2.92184e-66
-2.97498e-65
-1.94285e-67
2.94744e-67
1.9919e-68
-1.38828e-68
1.0033e-69
7.48666e-70
5.22855e-71
4.60222e-71
3.38756e-72
8.46633e-73
6.55584e-74
2.20418e-73
5.11359e-75
1.88309e-76
4.38538e-77
1.03968e-98
1.81683e-97
2.77041e-106
1.34692e-105
4.07456e-104
3.95273e-105
1.06208e-103
9.38287e-105
3.61138e-106
8.083e-106
1.95335e-104
1.55495e-105
6.54734e-107
1.24534e-106
2.87376e-105
2.19468e-106
9.71578e-108
1.64693e-107
7.45574e-109
1.20761e-108
2.53734e-107
1.77257e-108
8.55912e-110
1.24586e-109
2.50896e-108
1.68997e-109
3.31855e-108
2.19945e-109
1.13884e-110
1.44312e-110
7.61248e-112
9.28327e-112
-7.4405e-100
-2.25556e-99
-2.55878e-53
-7.39107e-55
-1.57402e-54
5.32924e-57
7.50174e-55
3.15149e-56
1.39314e-55
3.18145e-57
-2.75063e-57
-3.29157e-58
-4.22473e-57
-1.31748e-58
-1.83901e-58
1.50052e-60
8.85611e-59
9.9636e-58
3.21999e-58
1.22785e-56
6.58325e-60
2.03196e-58
2.35279e-56
1.3151e-74
-1.32179e-31
7.82903e-23
3.15345e-105
5.14202e-99
1.50414e-98
7.11466e-128
1.93212e-99
5.84866e-99
-1.63397e-99
24.8489
8.38683
37.1195
21.5583
32.992
-1.37387e-99
-5.90394e-98
-3.00165e-101
-4.94759e-57
-4.7116e-56
3.32486e-78
1.68715e-76
3.42778e-80
2.05284e-102
1.0166e-103
-3.2615e-58
-3.63956e-77
-1.19806e-78
5.00078e-113
5.80492e-113
1.31263e-13
2.39466e-13
4.17195e-108
2.14892e-15
1.29899e-30
1.18121e-30
1.17346e-30
8.34962e-91
3.31604e-92
2.86454e-91
9.62501e-93
6.12363e-92
1.58846e-93
4.61137e-93
1.56559e-95
3.66289e-95
-6.04313e-96
2.41042e-97
-3.55424e-97
-8.53461e-99
-2.94986e-98
-1.30727e-99
-9.24742e-100
1.27571e-99
-5.94486e-25
3.92504e-104
2.34859e-105
-2.01532e-93
1.12018e-31
9.49956e-32
2.64892e-57
1.1825e-57
3.19895e-114
3.58215e-114
6.269e-113
3.65803e-114
1.25341e-127
-1.15914e-78
-5.87336e-80
2.1327e-115
2.21092e-115
3.83328e-114
2.22152e-115
1.30472e-116
1.30546e-116
6.49978
-6.69739e-101
1.8615e-98
2.73405e-97
3.65418e-97
0.0384236
1.26803e-35
-3.83946e-33
3.95106e-42
2.28955e-55
1.72715e-56
5.03358e-49
6.56397e-72
-7.45383e-42
-2.44918e-80
2.17575e-69
-6.4556e-14
-1.94569e-13
-3.08372e-13
-3.40515e-12
-2.12176e-105
6.2836e-107
1.19838e-29
4.2076e-128
3.52519e-129
2.01818e-129
1.34696e-108
3.73012e-102
1.54704e-103
1.44509e-102
6.09018e-104
4.31591e-103
1.85857e-104
1.04261e-103
4.59243e-105
2.02366e-104
8.98655e-106
3.31306e-105
7.09327e-104
1.04674e-104
2.20954e-103
2.97969e-104
6.11987e-103
1.42314e-105
3.79086e-105
1.79137e-106
6.31833e-106
2.83278e-107
1.4964e-106
6.43137e-108
3.92328e-107
9.02458e-106
1.66221e-108
1.98564e-106
4.45565e-105
1.32316e-108
1.0596e-105
2.42941e-104
5.17806e-105
1.17214e-103
8.07882e-106
2.24233e-106
-1.10524e-25
-1.28705e-60
-3.1272e-33
9.30898e-33
7.39144e-33
7.46752e-34
5.57949e-34
5.79919e-35
4.09583e-35
7.5124e-107
8.21407
0.907143
-4.89708e-13
-1.21135e-11
1.59536e-100
9.91784e-102
-7.67137e-78
-6.77281e-77
7.91893e-75
7.08324e-75
-2.50881e-56
-7.55549e-55
-6.00651e-58
-4.19795e-103
5.32773e-106
8.0415e-107
11.2764
35.8811
1.7652e-97
-3.00388e-101
-4.28477e-80
2.62173e-114
1.73581e-130
9.65134e-131
1.96756e-12
8.81632e-106
3.77334e-107
4.37206e-36
-1.24187e-11
-1.34787e-10
3.03052e-70
6.23115e-71
-1.90175e-77
7.77223e-118
7.59035e-118
8.48748e-31
7.77722e-30
1.22158e-75
3.8125e-114
2.89143e-73
4.38326e-73
-2.9546e-81
2.92938e-36
-1.83456e-24
-1.44376e-25
-0.229854
-0.289532
-7.0783e-77
4.57685e-119
4.3954e-119
8.47309e-132
4.51398e-132
1.10721e-108
4.89841e-109
4.71232e-31
3.70134e-30
1.54328e-48
1.60403e-58
-5.735e-58
1.15271e-105
12.6029
4.37103e-103
-3.3101e-102
-1.70211e-102
-0.120835
-2.86238e-82
2.65531e-13
2.19022e-58
3.39703e-59
4.41742e-102
23.6588
4.33713e-58
1.77625e-31
9.92232e-31
1.7788e-32
1.39304e-77
1.30451e-105
2.6742e-120
2.53761e-120
1.29348e-104
3.14719e-10
-5.24641e-10
1.54772e-106
6.51214e-108
3.23729e-95
3.20727e-37
-2.32928e-31
2.78577e-30
-4.11579e-32
2.07875e-16
4.14583e-119
2.28177e-120
-8.13715e-103
-2.73404e-102
4.67622e-119
-1.60375e-103
3.85518e-103
8.57449
1.32778e-103
1.45865e-131
-9.12707e-110
-3.32754e-111
1.28158e-109
4.18068e-112
1.18241e-110
-1.53858e-107
-1.89706e-97
-2.64333e-83
1.7743e-84
2.04578e-37
2.16664e-43
7.29368e-43
-5.50472e-81
1.20188e-112
6.11539e-112
-7.03698e-114
1.42779e-121
1.27448e-121
4.08028e-133
2.099e-133
2.1836e-132
1.74856e-69
8.31364e-71
4.51708e-59
8.85087e-72
2.07443e-71
-6.31892e-73
8.30602e-72
2.3601e-62
5.54054e-103
2.62297e-102
1.26267e-101
5.84504e-101
2.84335e-100
1.29418e-99
6.39226e-99
2.85293e-98
1.42369e-97
6.26343e-97
3.16205e-96
1.36682e-95
6.95544e-95
2.97179e-94
1.52441e-93
6.42663e-93
3.31556e-92
1.38467e-91
7.17772e-91
2.97316e-90
1.54171e-89
6.35932e-89
1.16217e-89
2.47799e-88
1.3553e-87
5.23598e-87
8.81568e-88
1.84403e-86
1.10186e-85
3.81631e-85
5.47192e-86
1.09945e-84
7.83887e-84
2.18048e-83
2.88451e-84
5.7351e-83
7.31553e-84
1.44386e-82
1.12913e-81
2.80921e-81
3.38489e-82
6.5449e-81
5.43075e-80
1.24795e-79
1.39278e-80
2.60807e-79
2.3598e-78
4.81794e-78
4.4004e-77
8.83134e-77
9.05005e-78
1.62928e-76
1.60582e-75
2.89254e-75
2.89358e-74
5.08329e-74
1.55276e-77
3.55553e-90
2.41572e-96
5.14793e-73
8.8441e-73
1.46131e-95
8.18641e-74
1.39874e-72
1.52224e-71
2.35396e-71
2.0347e-72
3.35256e-71
3.92232e-70
5.4267e-70
6.46259e-69
8.65936e-69
1.04723e-67
1.3628e-67
1.67645e-66
2.1124e-66
2.64428e-65
3.22525e-65
2.26658e-100
4.09969e-64
2.75229e-73
4.85225e-64
1.60045e-67
2.69315e-72
7.34444e-68
6.26243e-63
7.1856e-63
5.19003e-64
4.31533e-14
-0.320348
-0.0593979
3.75935e-103
9.26055
3.9531e-58
1.25003e-59
8.0922e-123
-1.27134e-71
1.94478e-134
3.31355
6.97199e-105
8.74825e-106
1.43383e-103
-3.37564e-104
6.84634e-83
-4.63705e-60
-1.57696e-58
-5.1343e-57
-7.42402e-58
-1.55106e-56
2.05548e-104
5.43597e-103
2.54059e-32
1.67285e-36
4.73598e-85
6.91773e-35
-5.65878e-30
-2.9686e-29
1.15397e-54
-2.64062e-24
7.35751e-26
3.68462e-119
2.54674e-126
2.03279e-127
-2.65524e-98
-1.93998e-96
-5.63939e-86
-2.37578e-84
8.08776e-86
8.89384e-09
8.01473e-09
-4.05321e-09
-1.59307e-08
-8.06766e-09
-8.98668e-08
2.5973e-107
1.10703e-108
1.11616e-37
2.29414e-38
-4.28677e-88
8.94547e-08
9.77703e-14
3.7016e-13
1.44546e-14
-1.08304e-72
2.91648e-109
4.9507e-110
1.30325e-110
2.21723e-111
5.76837e-112
9.89668e-113
2.54457e-113
4.39408e-114
1.1113e-114
1.94323e-115
4.84106e-116
8.54535e-117
2.1114e-117
3.74662e-118
1.16363e-116
9.12179e-119
1.63581e-119
6.08739e-119
2.58265e-120
3.76711e-112
3.91511e-120
9.91842e-120
4.19934e-121
2.71049e-85
4.91008e-33
-1.71814e-59
-2.26568e-58
-8.80131e-61
-7.95758e-60
8.98968e-61
4.76691e-45
3.58328e-54
2.74986e-46
9.1203e-49
3.47477e-114
1.09491e-14
6.25527e-108
-7.37568e-58
2.2928e-57
7.42521e-63
5.03821e-64
1.04522e-61
9.50106e-134
1.02236e-132
-3.21714e-70
-8.94362e-70
2.97198e-68
2.16949e-104
1.31519e-105
-1.64697e-70
2.05345e-113
7.60584e-113
2.11069
1.2362e-59
2.69035e-104
3.13163e-105
2.52255e-104
4.11554e-103
5.40911e-27
-1.8488e-73
1.46543e-44
-4.64927e-44
4.3076e-25
7.40642e-25
4.36669e-26
1.55655e-07
-5.54046e-29
-7.28895e-28
2.20308e-104
1.3196e-105
2.94581e-70
-1.06786e-14
-2.8879e-15
-3.5795e-09
-1.18524e-07
2.53035
0.938384
0.00983831
-4.60868e-104
-4.03565e-103
-2.51651e-105
-3.54735e-71
-1.12376e-69
8.37082e-60
5.41563e-58
1.27077e-104
6.8155e-106
3.31422e-105
1.89913e-43
1.23036e-23
3.0923e-44
3.77863e-85
-1.02896e-91
4.83493e-61
3.80285e-106
8.14254e-87
3.92358e-87
5.86353e-26
3.22937e-27
8.13883e-37
5.21331e-38
2.12481e-90
2.66231e-57
1.00966e-55
3.15948e-64
6.93541e-63
4.42444e-64
-3.67892e-68
4.11416e-126
3.29563e-127
1.334e-114
3.41553e-114
4.05542e-113
-2.65401e-114
-3.13265e-112
-2.8947e-113
-2.80975e-111
-3.3956e-112
-8.41327e-111
-3.86023e-112
-1.19619e-110
-3.24169e-112
6.84263e-111
1.066e-111
8.07858e-110
5.84227e-111
3.03953e-109
1.28955e-110
2.90792e-109
1.02263e-110
8.93525e-110
-4.1434e-111
-7.09524e-109
-7.73869e-108
-4.58029e-107
-2.91502e-108
-1.13575e-106
-6.44769e-108
-6.82482e-107
-1.66588e-105
-1.40078e-106
1.95995e-107
2.03652e-105
2.46149e-104
9.71242e-104
6.33002e-105
2.06611e-103
1.07151e-104
2.60368e-103
6.17944e-102
2.40793e-102
6.63412e-104
-1.11104e-102
-4.64866e-102
-6.32652e-101
-4.62216e-102
-6.06438e-101
-1.08671e-99
-1.53995e-100
-2.07571e-101
1.999e-99
3.33773e-98
1.14498e-100
8.91355e-98
1.5883e-96
2.53718e-96
4.71712e-95
3.99735e-95
8.74709e-94
4.93796e-94
5.26584e-93
1.40229e-95
-4.6296e-93
-7.6962e-92
-1.63822e-91
-3.15426e-90
-3.02594e-90
-6.21624e-89
-1.61251e-89
-3.41986e-88
-1.12589e-90
-1.28112e-87
-9.39277e-87
2.1825e-86
5.73295e-85
2.02538e-92
-2.55697e-85
4.9574e-84
2.20111e-83
5.12855e-82
5.37321e-83
1.03262e-80
2.38103e-80
5.68181e-79
2.01118e-79
1.26191e-77
1.73497e-77
4.50234e-76
2.70711e-76
1.14269e-74
3.53891e-75
9.36749e-74
2.66305e-73
2.47479e-72
-9.84744e-73
-1.85818e-71
-6.21832e-71
-1.40209e-69
6.05167e-72
-2.14199e-69
-5.31184e-68
-8.49678e-71
-3.19731e-68
-1.30241e-66
-1.24567e-66
-3.2812e-65
-1.01846e-65
-2.45774e-64
-3.16747e-65
-3.82546e-65
-7.80961e-64
-6.59112e-65
-1.37084e-63
-1.70213e-62
-2.78263e-62
-3.31628e-64
-1.45766e-62
-5.66671e-61
-4.10012e-61
1.97659e-61
3.88784e-60
1.42884e-61
9.51058e-61
-3.1185e-66
-1.04909e-59
-9.09661e-60
-1.96796e-58
-2.63935e-59
-4.11187e-61
-1.00003e-58
-2.07165e-57
8.17995e-107
6.80636e-104
-4.03098e-60
-4.9401e-45
-2.31451e-44
-6.52997e-43
-3.43159e-44
-1.90531e-42
1.2959e-43
1.00979e-42
1.27933e-42
3.38558e-41
3.25899e-44
1.63569e-42
8.81043e-41
-5.72653e-42
-2.80659e-41
3.35875e-39
4.04562e-39
8.21604e-38
2.11121e-37
7.6397e-37
7.58422e-36
-4.59216e-37
1.69524e-34
-6.44945e-34
1.45788e-33
-2.88398e-32
-8.74015e-33
-7.75289e-31
-1.24017e-30
-1.11009e-29
-4.89125e-29
-6.33349e-29
-1.1114e-27
3.47703e-103
-7.38397e-97
-2.33773e-95
1.48768e-120
6.35092e-122
1.84134e-122
2.79654e-123
3.34036e-119
8.01055e-124
1.23073e-124
4.03731e-124
1.62769e-125
4.36908e-108
9.74277e-107
-4.24232e-71
-1.78025e-69
-8.00053e-69
3.23249e-38
2.36953e-39
4.42061e-134
4.60663e-133
2.1913e-104
1.29011e-105
0.00769497
-0.101044
-1.44794e-71
3.18404e-103
2.02534e-59
1.5533e-58
2.56297e-57
4.59182e-102
-4.71446e-23
5.2271e-54
5.50801e-102
4.8359e-102
-4.31712e-69
-3.80835e-68
1.60384e-105
1.09633e-105
1.32844e-107
2.04186e-57
8.90619e-56
-1.2895e-38
1.02464e-08
-2.7606e-09
1.85935e-30
-8.13108e-103
-9.96988e-102
-4.94485e-71
-1.21225e-72
-6.37945e-59
-1.35539e-57
-5.03729e-60
1.01615e-106
4.45008e-106
-9.99354e-107
-7.75219e-15
-2.39082e-16
4.07365e-34
0.00294109
0.00773095
0.487698
0.208428
2.25638e-88
4.68472e-89
4.88364e-88
2.60398e-27
-9.01224e-27
1.30117e-104
1.16421e-105
4.22798e-107
3.62893e-107
-1.74062e-55
-2.39696e-85
1.23452e-101
9.43806e-101
5.59003e-125
2.27349e-126
7.26037e-127
1.00187e-127
3.05993e-127
1.27014e-128
1.22581e-23
-5.3658e-46
-1.97355e-46
1.5043e-56
3.65386e-55
5.22756e-58
3.73381e-108
5.85589e-63
-4.2743e-28
-7.22892e-27
-1.91965e-29
-3.4558e-27
-8.73547e-26
6.06038e-26
-3.60798e-25
2.48258e-24
8.18982e-24
5.51265e-23
2.99533e-22
-3.33675e-23
1.02846e-21
8.51539e-101
7.21858e-101
-4.95559e-58
-9.63127e-57
5.65414e-112
-1.41444e-113
3.52981e-56
9.53109e-55
4.67858e-120
1.0411e-118
-9.35559e-28
-1.06514e-28
-2.07508e-96
-4.3435e-95
-7.27735e-94
-4.96998e-94
-1.9841e-92
1.42819e-107
3.09301e-106
5.61789e-102
-4.12162e-47
3.50719e-64
2.71029e-65
5.62925e-99
3.76913e-98
1.14177e-100
-9.88069e-100
-2.7423e-100
-2.65345e-99
3.37074e-37
2.08077e-38
3.28397e-39
3.97231e-52
3.94952e-62
1.79401e-63
1.6154e-64
3.76501e-50
-3.02596e-71
-3.47722e-69
7.94808e-99
-6.75169e-53
-5.60133e-54
8.99662e-53
5.74142e-54
7.16608e-52
4.24292e-53
5.26897e-52
3.63864e-53
-3.42932e-52
2.45414e-54
2.81234e-54
1.48402e-55
1.97418e-55
8.51087e-57
1.21307e-56
-1.72008e-56
4.72093e-58
1.59836e-65
-0.595272
-0.317879
-0.172082
-0.012764
0.00387257
0.00400573
0.00192501
0.000225507
-3.33934e-06
0.00611966
-2.99158e-05
-1.22759e-05
-1.59051e-05
-3.58375e-06
-7.5367e-06
-8.89759e-07
-2.45593e-06
-1.94297e-07
2.37692e-08
8.01446e-09
-3.81953e-08
2.11865e-09
-6.64762e-09
4.47835e-10
1.47684e-10
2.56946e-11
8.87545e-11
4.35112e-12
-1.02657e-12
-1.93755e-13
-6.89164e-14
-1.10883e-14
1.37575e-15
2.82446e-16
1.12349e-11
-1.64594e-15
5.17779e-17
1.90782e-17
3.09025e-18
5.81557e-15
-2.21742e-19
-4.15003e-20
-2.42423e-16
3.0097e-39
2.26311e-40
6.79308e-61
-6.03553e-62
1.94776e-134
1.98446e-135
6.66414e-126
5.00009e-127
2.46501e-128
3.50554e-128
1.76784e-129
2.44728e-129
1.15243e-115
1.24311e-130
-2.02826e-20
-3.16161e-21
-7.10212e-21
-4.68749e-22
-1.16887e-100
-1.70575e-06
9.29901e-24
1.93834e-24
-1.58747e-106
-4.34468e-105
-4.10766e-90
-2.67902e-108
-7.59893e-65
-6.8314e-66
2.17149e-108
-3.17232e-108
2.36628e-08
1.24809e-07
1.40851e-09
6.76772e-58
2.57815e-59
5.81064e-60
5.4321e-61
-2.6623e-61
-6.97833e-63
8.06332e-96
-1.28265e-95
1.59562e-92
-2.1036e-91
1.23177e-25
7.52667e-27
-6.36972e-26
-1.06882e-24
4.84438e-24
-6.30423e-24
1.73233e-22
-1.18255e-35
1.2149e-29
-2.41544e-62
-1.14318e-63
2.45968e-100
1.90611e-99
-9.98013e-22
-2.69283e-21
-6.77409e-23
3.0398e-25
2.73159e-25
3.55263e-26
4.16173e-26
4.26044e-27
2.2936e-28
2.94071e-29
4.91812e-28
3.77437e-30
-3.08225e-30
-3.66124e-31
4.73443e-31
-4.68788e-32
-1.55977e-32
-1.86979e-33
-5.5854e-33
-2.21106e-34
-5.93365e-34
-2.38938e-35
-6.21738e-35
-2.45282e-36
-5.60548e-38
-8.73351e-39
6.35553e-39
8.48896e-40
-6.20917e-36
2.78059e-40
3.31815e-41
9.90238e-41
3.77866e-42
1.13242e-44
5.11981e-45
4.01584e-43
9.51095e-46
-9.00369e-46
-7.73285e-29
8.69147e-32
2.0466e-104
1.15986e-105
1.29966e-99
1.05826e-99
2.4997e-39
4.26059e-16
7.36486e-17
-2.95419e-24
-4.87167e-58
-1.58953e-56
-2.6453e-102
-9.42009e-101
0.000217641
0.00221598
0.0668822
0.0365815
0.0560251
0.0106954
6.44476e-72
2.83982e-73
1.7131e-130
3.26382e-129
-3.32282e-66
-2.84408e-67
-6.66582e-06
-8.57631e-64
1.03431e-110
-9.18497e-109
-3.44289e-107
-4.35974e-108
3.93039e-128
1.97797e-133
-0.000114278
-3.03537e-95
-2.09746e-93
4.01111e-44
-6.70296e-23
-3.12266e-113
5.00039e-26
0.0153798
1.01336e-131
-2.71925e-16
-2.246e-15
1.98321e-78
1.44355e-112
-1.09328e-20
-9.37099e-20
1.19516e-19
-1.88156e-19
-1.11339e-18
-8.63543e-18
4.83191e-99
3.8086e-98
5.62386e-19
9.3564e-98
7.49528e-97
1.78201e-96
1.43975e-95
3.3478e-95
2.71333e-94
6.19961e-94
4.97679e-93
-6.74737e-51
-5.87192e-51
-1.39068e-49
5.69729e-50
-7.51671e-50
8.59776e-48
3.908e-49
1.1583e-47
1.27584e-46
-9.47134e-47
-1.62552e-45
-9.89064e-46
-1.8347e-44
4.84804e-45
3.92898e-44
5.79404e-43
9.33694e-42
5.15899e-42
9.15194e-41
3.92228e-46
3.71843e-49
-4.30223e-42
-1.25573e-40
7.04253e-44
1.62151e-39
-2.49057e-39
-4.00843e-38
-7.35423e-37
-4.04437e-38
1.13662e-92
8.88807e-92
2.06794e-91
1.53407e-90
3.7674e-90