FoamFile{version 2.0;format ascii;class volScalarField;location 0;object hp;}

dimensions [0 1 0 0 0 0 0];

internalField nonuniform List<scalar>
184(2.502e-02
1.498e-02
4.926e-03
-5.123e-03
-1.517e-02
-2.522e-02
-3.527e-02
-4.532e-02
-5.537e-02
-6.542e-02
-7.547e-02
-8.552e-02
-9.557e-02
-1.056e-01
-1.157e-01
-1.257e-01
-1.358e-01
-1.458e-01
-1.559e-01
-1.659e-01
-1.760e-01
-1.860e-01
-1.961e-01
-2.061e-01
-2.162e-01
-2.262e-01
-2.363e-01
-2.463e-01
-2.564e-01
-2.664e-01
-2.765e-01
-2.865e-01
-2.965e-01
-3.066e-01
-3.166e-01
-3.267e-01
-3.367e-01
-3.468e-01
-3.568e-01
-3.669e-01
-3.769e-01
-3.870e-01
-3.970e-01
-4.071e-01
-4.171e-01
-4.272e-01
-4.372e-01
-4.473e-01
-4.573e-01
-4.674e-01
-4.774e-01
-4.875e-01
-4.975e-01
-5.076e-01
-5.176e-01
-5.277e-01
-5.377e-01
-5.478e-01
-5.578e-01
-5.679e-01
-5.779e-01
-5.880e-01
-5.980e-01
-6.081e-01
-6.181e-01
-6.282e-01
-6.382e-01
-6.483e-01
-6.583e-01
-6.684e-01
-6.784e-01
-6.885e-01
-6.985e-01
-7.086e-01
-7.186e-01
-7.287e-01
-7.387e-01
-7.488e-01
-7.588e-01
-7.689e-01
-7.789e-01
-7.890e-01
-7.990e-01
-8.091e-01
-8.191e-01
-8.292e-01
-8.392e-01
-8.493e-01
-8.593e-01
-8.694e-01
-8.794e-01
-8.894e-01
-8.995e-01
-9.095e-01
-9.196e-01
-9.296e-01
-9.397e-01
-9.497e-01
-9.598e-01
-9.698e-01
-9.799e-01
-9.899e-01
-1.000e+00
-1.010e+00
-1.020e+00
-1.030e+00
-1.040e+00
-1.050e+00
-1.060e+00
-1.070e+00
-1.080e+00
-1.090e+00
-1.100e+00
-1.111e+00
-1.121e+00
-1.131e+00
-1.141e+00
-1.151e+00
-1.161e+00
-1.171e+00
-1.181e+00
-1.191e+00
-1.201e+00
-1.211e+00
-1.221e+00
-1.231e+00
-1.241e+00
-1.251e+00
-1.261e+00
-1.271e+00
-1.281e+00
-1.291e+00
-1.301e+00
-1.312e+00
-1.322e+00
-1.332e+00
-1.342e+00
-1.352e+00
-1.362e+00
-1.372e+00
-1.382e+00
-1.392e+00
-1.402e+00
-1.412e+00
-1.422e+00
-1.432e+00
-1.442e+00
-1.452e+00
-1.462e+00
-1.472e+00
-1.482e+00
-1.492e+00
-1.502e+00
-1.512e+00
-1.523e+00
-1.533e+00
-1.543e+00
-1.553e+00
-1.563e+00
-1.573e+00
-1.583e+00
-1.593e+00
-1.603e+00
-1.613e+00
-1.623e+00
-1.633e+00
-1.643e+00
-1.653e+00
-1.663e+00
-1.673e+00
-1.683e+00
-1.693e+00
-1.703e+00
-1.713e+00
-1.724e+00
-1.734e+00
-1.744e+00
-1.754e+00
-1.764e+00
-1.774e+00
-1.784e+00
-1.794e+00
-1.804e+00
-1.814e+00);

boundaryField
{
  top
  {
    type zeroGradient;
  }
  bottom
  {
    type zeroGradient;
  }
  bc0
  {
    type fixedGradient;
    gradient uniform -1;
  }
  bc1
  {
    type zeroGradient;
  }
  bc2
  {
    type zeroGradient;
  }
  bc3
  {
    type zeroGradient;
  }
}