FoamFile{version 2.0;format ascii;class volScalarField;location 0;object hp;}

dimensions [0 1 0 0 0 0 0];

internalField nonuniform List<scalar>
92(1.000e-02
0.001
-3.000e-02
-5.000e-02
-7.000e-02
-9.000e-02
-1.100e-01
-1.300e-01
-1.500e-01
-1.700e-01
-1.900e-01
-2.100e-01
-2.300e-01
-2.500e-01
-2.700e-01
-2.900e-01
-3.100e-01
-3.300e-01
-3.500e-01
-3.700e-01
-3.900e-01
-4.100e-01
-4.300e-01
-4.500e-01
-4.700e-01
-4.900e-01
-5.100e-01
-5.300e-01
-5.500e-01
-5.700e-01
-5.900e-01
-6.100e-01
-6.300e-01
-6.500e-01
-6.700e-01
-6.900e-01
-7.100e-01
-7.300e-01
-7.500e-01
-7.700e-01
-7.900e-01
-8.100e-01
-8.300e-01
-8.500e-01
-8.700e-01
-8.900e-01
-9.100e-01
-9.300e-01
-9.500e-01
-9.700e-01
-9.900e-01
-1.010e+00
-1.030e+00
-1.050e+00
-1.070e+00
-1.090e+00
-1.110e+00
-1.130e+00
-1.150e+00
-1.170e+00
-1.190e+00
-1.210e+00
-1.230e+00
-1.250e+00
-1.270e+00
-1.290e+00
-1.310e+00
-1.330e+00
-1.350e+00
-1.370e+00
-1.390e+00
-1.410e+00
-1.430e+00
-1.450e+00
-1.470e+00
-1.490e+00
-1.510e+00
-1.530e+00
-1.550e+00
-1.570e+00
-1.590e+00
-1.610e+00
-1.630e+00
-1.650e+00
-1.670e+00
-1.690e+00
-1.710e+00
-1.730e+00
-1.750e+00
-1.770e+00
-1.790e+00
-1.81);

boundaryField
{
  top
  {
    type zeroGradient;
  }
  bottom
  {
    type fixedValue; value uniform 0.01;
  }

}