/*--------------------------------*- C++ -*----------------------------------*\
  =========                 |
  \\      /  F ield         | OpenFOAM: The Open Source CFD Toolbox
   \\    /   O peration     | Website:  https://openfoam.org
    \\  /    A nd           | Version:  6
     \\/     M anipulation  |
\*---------------------------------------------------------------------------*/
FoamFile
{
    version     2.0;
    format      ascii;
    class       volScalarField;
    location    "18144000";
    object      Cw;
}
// * * * * * * * * * * * * * * * * * * * * * * * * * * * * * * * * * * * * * //

dimensions      [1 -3 0 0 0 0 0];

internalField   nonuniform List<scalar> 
11831
(
0
0
0
0
0
0
0
0
0
0
0
0
0
0
0
0
0
0
0
0
0
0
0
0
0
0
0
0
0
0
0
0
0
0
0
0
0
0
0
0
0
0
0
0
0
0
0
0
0
0
0
0
0
0
0
0
0
0
0
0
0
0
0
0
0
0
0
0
0
0
0
0
0
0
0
0
0
0
0
0
0
0
0
0
0
0
0
0
0
0
0
0
0
0
0
0
0
0
0
0
0
0
0
0
0
0
0
0
0
0
0
0
0
0
0
0
0
0
0
0
0
0
0
0
0
0
0
0
0
0
0
0
0
0
0
0
0
0
0
0
0
0
0
0
0
0
0
0
0
0
0
0
0
0
0
0
0
0
0
0
0
0
0
0
0
0
0
0
0
0
0
0
0
0
0
0
0
0
0
0
0
0
0
0
0
0
0
0
0
0
0
0
0
0
0
0
0
0
0
0
0
0
0
0
0
0
0
0
0
0
0
0
0
0
0
0
0
0
0
0
0
0
0
0
0
0
0
0
0
0
0
0
0
0
0
0
0
0
0
0
0
0
0
0
0
0
0
0
0
0
0
0
0
0
0
0
0
0
0
0
0
0
0
0
0
0
0
0
0
0
0
0
0
0
0
0
0
0
0
0
0
0
0
0
0
0
0
0
0
0
0
0
0
0
0
0
0
0
0
0
0
0
0
0
0
0
0
0
0
0
0
0
0
0
0
0
0
0
0
0
0
0
0
0
0
0
0
0
0
0
0
0
0
0
0
0
0
0
0
0
0
0
0
0
0
0
0
0
0
0
0
0
0
0
0
0
0
0
0
0
0
0
0
0
0
0
0
0
0
0
0
0
0
0
0
0
0
0
0
0
0
0
0
0
0
0
0
0
0
0
0
0
0
0
0
0
0
0
0
0
-2.34299e-20
-2.26615e-19
4.93273e-19
-3.46113e-17
1.06465e-22
-2.71304e-18
2.35614e-16
-2.19182e-19
8.40367e-24
-4.40485e-16
-9.45785e-17
3.80991e-22
1.74e-14
-8.71903e-22
9.01804e-26
1.06041e-16
2.9519e-25
1.60406e-14
-3.67114e-15
2.715e-26
-3.18657e-24
-9.06786e-17
-5.80579e-14
6.42082e-29
-1.44218e-28
-5.25553e-14
5.65788e-14
2.72768e-28
5.29728e-16
3.49365e-32
-8.11504e-27
-1.07429e-13
1.2875e-14
-1.42373e-30
-9.01444e-31
-1.78185e-13
-2.22261e-15
-4.60931e-34
4.07966e-30
-1.05228e-12
6.9202e-14
2.56253e-33
1.06643e-33
5.8279e-13
8.73393e-16
1.74498e-37
8.93012e-32
1.98722e-12
2.59869e-21
3.55974e-18
1.09641e-16
-2.38841e-20
3.34771e-14
-3.85286e-35
-7.66132e-22
7.16123e-19
-1.05831e-17
2.51743e-18
-1.35618e-23
-3.18292e-15
-6.28472e-18
8.00627e-36
-4.15974e-24
8.91943e-16
4.63429e-13
-3.30746e-25
-2.31265e-15
1.78887e-20
6.48929e-15
5.32081e-37
-1.42377e-37
1.67876e-13
1.10021e-15
6.32198e-40
-2.32374e-34
1.01179e-12
6.5258e-16
-9.99787e-27
-3.80448e-14
1.81287e-29
-3.1379e-30
1.39333e-15
-4.69573e-27
-2.758e-16
2.11669e-23
-2.15009e-14
1.74215e-29
8.43427e-27
2.45221e-14
-1.20764e-13
2.10917e-25
5.83522e-13
-1.17949e-38
1.14628e-15
5.869e-14
1.20869e-39
4.93261e-16
7.4043e-38
6.42491e-41
2.86427e-13
-1.5933e-36
-1.0055e-15
5.7123e-14
4.52278e-32
1.26882e-15
-7.87955e-38
-1.98507e-15
-6.19659e-34
5.42684e-14
-4.49038e-34
1.67543e-14
3.2821e-36
-8.42892e-22
-9.23209e-19
1.34659e-17
1.34065e-20
3.25945e-26
2.71492e-15
4.93103e-18
-5.40547e-19
-1.62556e-19
6.08177e-20
7.19444e-17
-3.21554e-25
-6.70748e-17
5.13415e-20
-3.38579e-21
6.17072e-16
3.12458e-27
1.76901e-14
-4.71911e-16
-2.26064e-32
-2.9502e-28
1.18134e-12
-4.67291e-16
3.61536e-20
-1.08013e-21
2.08974e-18
8.51223e-16
-2.18351e-21
1.93527e-28
-1.45414e-12
-1.33169e-13
-3.8774e-34
-1.57116e-17
2.65847e-36
2.38294e-32
2.79892e-23
-3.15235e-33
2.80813e-13
3.49169e-13
5.09096e-23
4.23323e-13
-3.40927e-15
-1.71734e-23
-2.88667e-17
1.38918e-22
-1.98317e-27
5.01928e-16
-1.06779e-14
-1.14396e-24
6.36492e-17
-5.7725e-19
1.8841e-12
-1.0088e-38
2.89246e-16
9.71982e-15
7.14878e-41
9.89562e-21
-5.66898e-20
-1.74761e-19
-3.4303e-19
-4.40429e-19
-8.05809e-19
-1.58116e-19
4.57299e-19
6.18597e-18
1.46778e-17
3.05127e-17
5.87625e-17
6.28684e-17
1.00143e-16
1.10677e-16
1.50494e-16
-2.58871e-16
-7.78539e-16
-2.72192e-15
-5.92884e-15
-8.43624e-15
-1.54889e-14
-1.16519e-14
-1.53108e-14
4.55925e-14
1.25571e-13
3.67247e-13
7.7839e-13
1.05112e-12
1.89096e-12
1.56882e-12
3.40304e-12
2.93524e-12
5.7119e-12
5.27762e-12
8.57425e-12
9.22497e-12
1.21591e-11
1.57155e-11
1.48141e-11
2.64212e-11
9.70349e-12
4.04979e-11
-2.10667e-11
5.71445e-11
-1.08834e-10
7.3636e-11
-3.25679e-10
7.50097e-11
-8.10583e-10
-2.29439e-09
-4.30314e-09
-1.79021e-09
-7.6511e-09
-3.63222e-09
-1.26975e-08
-1.53447e-08
-2.22455e-08
-2.02473e-08
-2.95431e-08
2.06007e-09
3.61914e-08
-3.60378e-08
1.16991e-07
4.65925e-07
8.73208e-07
1.62765e-06
2.58111e-06
1.55032e-06
3.90293e-06
2.6288e-06
5.68204e-06
5.50995e-06
6.65985e-06
7.8963e-06
6.87487e-06
-1.24497e-05
-3.3356e-05
3.15807e-06
-7.26785e-05
-0.000195926
-0.000329722
-0.000141431
-0.000527996
-0.000828145
-0.00117184
-0.00131905
-0.0016855
-0.00158546
-0.00200699
-0.000996553
-5.42612e-05
-0.00225213
0.00209559
-0.00221803
0.00637621
0.0234322
0.0401506
0.0138414
0.0650956
0.126622
0.185322
0.100716
0.262497
0.405311
0.539995
0.731155
0.360375
0.699947
0.480083
0.883108
0.621165
1.08493
0.781177
1.2983
0.955447
1.51372
1.13708
1.85637e-12
1.71996
1.31728
1.90496
2.25501
1.48597
0.92583
1.06652
0.593322
0.700825
2.39732
2.59432
0.342807
2.66421
2.6827
0.417947
0.174922
2.69597
2.59811
0.222727
0.0755514
2.52339
2.24615
0.102958
2.09367
1.70055
0.024651
0.0385351
1.51957
1.11591
0.00317188
0.00913568
0.95294
0.624977
-0.00331396
0.507039
0.290604
-0.00133311
-0.00389807
0.221336
0.105912
-0.00337327
0.0735781
0.0256122
-0.00281771
-0.00284386
0.0143776
0.000379394
0.00438279
-0.00380016
-0.00276791
-0.00386285
-0.00392439
-0.00305832
-0.0033722
-0.00188083
-0.00226813
-0.000903535
-0.00120035
-0.000322669
-0.000488601
-6.56106e-05
-0.000135265
1.5251e-05
-7.02239e-06
2.63618e-05
2.2415e-05
2.09957e-05
2.06295e-05
1.20346e-05
1.38333e-05
5.03248e-06
-0.00173213
6.6458e-06
-0.0018601
-0.00276508
-0.000634604
3.45295e-06
7.11845e-07
-0.00190069
-0.00231949
-0.000842282
1.98338e-07
-2.38669e-07
-0.00185136
-0.00165891
-0.00173265
-0.000756708
-2.92127e-07
-2.21086e-07
-0.0014045
0.000416896
-1.96408e-07
-8.53243e-08
-0.000954777
0.00178311
-0.000420481
0.00323006
-5.60833e-08
-1.11048e-08
-0.000965971
0.000216435
0.00465612
0.000908945
0.00594548
-2.31169e-09
3.91755e-09
2.00042e-09
3.28686e-09
3.16e-09
1.84279e-09
0.00158997
0.00700793
3.02881e-09
2.16822e-09
0.00221404
0.00778816
6.69717e-10
0.00273232
0.00822929
9.75219e-10
0.0031184
0.00840325
1.36748e-10
0.000727877
0.00334647
0.00823782
-0.00202812
2.82672e-10
0.00344348
0.0077179
0.0160585
0.0141076
0.0265522
0.0221942
0.0383436
0.0307232
0.049081
0.037882
0.0562838
0.0240112
0.0285661
0.0183144
-0.000674003
-0.000221383
-0.000133382
-9.30547e-07
2.19616e-05
2.97689e-05
2.96188e-05
1.81548e-05
1.57912e-05
6.32612e-06
4.37788e-06
7.56535e-07
1.1374e-07
-3.8547e-07
-4.34974e-07
-2.74779e-07
-2.41868e-07
-9.71435e-08
-6.56385e-08
-9.92647e-09
-5.18844e-10
-1.31595e-07
5.80867e-09
5.99342e-09
3.52261e-09
2.89249e-09
9.58059e-10
5.60942e-10
0.0210515
0.0136449
-1.54908e-11
4.35722e-13
-7.15051e-11
-8.03264e-11
-7.11578e-11
1.33765e-10
3.01674e-11
0.0151861
0.00993586
1.45009e-05
-3.42011e-11
-2.39564e-11
-2.95554e-11
-3.18246e-11
-1.68144e-11
-1.21463e-11
0.010735
0.0070712
-4.70509e-12
-1.44088e-12
-2.24517e-11
1.00528e-10
-2.97812e-12
-1.05176e-12
1.32404e-12
1.3725e-12
0.0074523
0.0107077
0.00492743
8.04175e-13
6.3177e-13
4.54242e-13
6.27823e-13
9.33886e-13
4.19516e-13
3.40812e-13
1.81683e-13
9.42665e-14
4.5583e-13
3.41461e-14
-2.10778e-14
-2.15738e-14
-1.78067e-15
-1.9479e-14
-9.81934e-15
-6.94579e-15
-1.62646e-14
-4.30718e-15
-4.49561e-16
5.57567e-17
-2.35708e-15
2.75839e-16
2.70558e-16
2.19856e-16
3.15358e-16
1.64984e-16
5.16083e-17
0.00506656
0.00336477
2.83753e-16
2.67372e-17
-2.2162e-18
1.06805e-13
4.97778e-14
0.00337255
0.00225687
0.00213592
0.00143818
0.00128704
0.00087427
-3.08863e-15
-1.08513e-14
1.73327e-13
0.000734379
-4.02069e-18
-3.34432e-18
0.000503802
-8.43719e-15
-7.18368e-15
0.00148354
0.000396634
-2.54828e-15
-1.27806e-15
-5.08816e-15
-3.85613e-16
-2.89527e-15
1.82506e-16
-2.59712e-18
-9.05398e-19
-1.00809e-10
1.12399e-16
-1.23962e-15
0.000275163
0.00675261
-0.00329179
7.9959e-06
1.39471e-05
8.90238e-06
1.22576e-05
9.09486e-06
9.96615e-06
8.48888e-06
6.57476e-06
7.14782e-06
1.56683e-06
5.64554e-06
-4.81076e-06
3.75449e-06
-1.22616e-05
1.18337e-06
-2.03969e-05
-1.88613e-06
-2.84536e-05
-5.27364e-06
-3.55467e-05
-8.7575e-06
-4.08657e-05
-1.20044e-05
-4.38028e-05
-1.46486e-05
-4.40994e-05
-1.64249e-05
-4.17893e-05
-1.71338e-05
-3.73979e-05
-4.60886e-06
-1.6794e-05
-3.14858e-05
-1.54992e-05
-2.49979e-05
-1.35127e-05
-1.86299e-05
-1.11193e-05
-1.29228e-05
-8.60482e-06
-8.2236e-06
-6.26732e-06
-5.03988e-06
-1.82755e-06
2.88435e-06
3.18384e-05
3.65328e-05
6.29616e-06
3.82028e-05
0.000128736
0.000117447
3.74343e-05
0.000103145
0.000270514
0.0002216
8.74955e-05
0.000176429
-5.25146e-06
7.18734e-05
0.000136685
0.00029976
0.000221225
0.000103152
0.000159393
0.000310932
0.00021497
0.000384171
0.000255766
0.000145378
0.000166765
0.000271069
0.000171253
0.000106592
0.000106315
6.67661e-05
6.49421e-05
4.10552e-05
3.89833e-05
0.000261247
2.48011e-05
2.29774e-05
1.47486e-05
1.32834e-05
1.91806e-05
1.07412e-05
7.53619e-06
5.90257e-06
7.74985e-06
4.19679e-06
3.18374e-06
-6.61998e-05
2.294e-06
1.68594e-06
-4.88612e-19
9.85865e-21
-8.35406e-20
1.23098e-06
0.000202804
5.7468e-20
0.00191243
-0.0036994
2.79644e-16
-2.43848e-16
0.000142423
6.40059e-20
-0.000914286
-0.00354084
8.76696e-07
6.48626e-07
4.70006e-20
2.08274e-20
2.05059e-16
1.50282e-05
9.81508e-05
-0.0023772
-0.00311648
2.73481e-16
2.57106e-16
1.34162e-20
1.32739e-21
-0.00294578
-0.00261836
4.4776e-07
3.35684e-07
4.48879e-07
6.98719e-05
9.76087e-05
-3.87973e-08
-0.0028507
-0.00208829
-0.00247538
-0.00157091
-0.000964519
-0.000623989
-0.000259658
-0.000133844
-0.000379028
-5.89672e-05
8.16126e-06
1.74304e-05
2.11373e-05
1.62148e-05
1.10925e-05
7.01004e-06
1.18761e-05
2.89848e-06
1.37939e-06
8.32436e-08
-1.51152e-07
-2.62857e-07
-2.00109e-07
-1.32376e-07
-7.88263e-08
-2.80642e-08
-1.10035e-08
-4.24977e-08
1.94853e-09
-2.47944e-09
-2.01485e-08
2.38243e-16
3.51993e-16
4.49305e-05
2.35315e-07
4.84805e-05
6.53358e-05
-0.000101512
1.70668e-07
1.09515e-23
-7.56047e-22
3.28176e-05
4.27455e-05
1.21179e-07
2.91371e-07
1.13533e-09
-7.85214e-09
1.65547e-16
4.74635e-17
3.18468e-16
2.1692e-05
2.73524e-05
8.52637e-08
6.13159e-08
5.56363e-07
0.0165679
-4.31903e-05
-1.08396e-10
1.89342e-06
-1.84464e-18
-6.19738e-22
-2.67334e-22
-3.92178e-22
-4.3337e-23
0.000223196
-9.32673e-23
1.40117e-05
1.71297e-05
2.06163e-09
-1.91024e-09
1.52302e-17
-4.83901e-18
2.65938e-06
4.1867e-08
3.04922e-08
-1.51628e-23
1.07064e-23
1.04686e-05
8.8514e-06
1.05078e-05
-0.00258708
0.272809
1.77033e-09
5.49239e-10
1.3631e-09
-5.6175e-18
-3.53945e-18
5.47219e-06
6.31781e-06
1.1482e-05
6.73928e-06
1.17004e-05
3.72403e-06
2.02103e-08
1.49067e-08
2.08096e-08
9.28461e-24
4.55942e-24
1.02993e-08
-2.94733e-09
3.98665e-09
3.89193e-06
2.1554e-06
-2.30531e-18
-5.5957e-19
1.25914e-09
1.19026e-09
0.0135817
1.24611e-11
7.16552e-09
1.3343e-08
5.01178e-09
3.06632e-24
4.1237e-25
-3.19017e-08
6.03818e-05
2.55607e-05
3.25012e-05
1.24703e-05
1.46295e-05
4.8058e-06
4.75802e-06
1.07908e-06
6.37924e-07
-1.66233e-07
-5.61229e-07
-3.97563e-07
-5.89045e-07
-2.79946e-07
-3.54979e-07
-2.36663e-07
2.20791e-06
1.22587e-06
-1.2027e-19
9.02451e-20
-1.10994e-18
8.08207e-10
1.01579e-09
-1.33506e-09
2.01396e-10
-7.9233e-09
-3.07033e-09
-1.8971e-08
-9.52918e-09
-2.91782e-08
-1.7695e-08
-3.15255e-08
-2.30785e-08
2.56506e-09
-1.35261e-08
9.59137e-08
3.09202e-08
2.58286e-07
1.18753e-07
4.48946e-07
2.40466e-07
7.77397e-07
5.73395e-07
3.37485e-07
8.3528e-06
1.85492
1.90295
-1.30318e-07
-1.34064e-07
4.48291e-09
2.91658e-09
-4.69641e-17
3.65049e-16
-2.69222e-15
-8.00137e-16
-9.9853e-15
-5.26358e-15
-2.0417e-14
-1.46844e-14
5.74173e-13
3.38756e-09
2.3984e-09
1.23972e-25
1.95243e-24
-1.28148e-25
-1.3771e-25
-6.89682e-26
-9.46167e-26
-3.35416e-08
-2.37247e-08
4.46415e-07
3.58121e-07
4.06558e-09
-8.45582e-10
7.11976e-20
-3.95528e-19
1.18069e-07
1.23062e-06
6.86363e-07
6.53302e-07
-1.59386e-26
6.34067e-10
7.89788e-09
3.66502e-07
-4.76659e-26
-2.23874e-07
7.63129e-08
1.57542e-09
1.12901e-09
5.37292e-06
-2.97801e-26
3.32493e-07
-4.79996e-09
6.45099e-09
9.14982e-09
1.67022e-08
1.18951e-08
2.47582e-08
1.41205e-08
4.62143e-09
4.10208e-09
1.46135e-08
3.0772e-09
1.35711e-08
1.57064e-09
1.1249e-08
-1.77117e-10
7.44114e-09
-1.96993e-09
-1.6538e-09
-2.02629e-09
-3.70076e-09
-2.28431e-09
-8.03633e-10
-6.74835e-10
-2.27788e-09
-4.74239e-10
-2.33675e-11
6.34363e-11
6.94064e-11
8.02859e-11
-2.01549e-09
3.31962e-11
2.94867e-11
6.66912e-12
3.04424e-12
2.26168e-11
-3.79876e-13
-1.89352e-12
-2.33125e-12
1.40195e-11
7.33909e-10
-1.00152e-12
-9.02151e-13
9.81017e-12
3.77987e-07
2.02179e-07
9.79405e-20
-3.22324e-20
-1.49688e-06
-5.40243e-07
-3.59313e-06
1.03039e-27
7.20899e-10
9.29147e-10
5.22902e-10
7.5961e-10
3.5598e-10
-2.09495e-13
-9.99699e-14
1.41491e-09
2.46162e-09
2.04754e-07
1.09804e-07
8.30684e-20
9.74413e-20
-1.1125e-27
4.81125e-10
2.55579e-14
4.88235e-14
-1.8659e-16
5.81598e-14
7.12975e-14
5.78993e-14
2.11342e-14
1.50898e-14
1.14584e-13
0.0737404
0.079232
0.104437
0.10597
0.140698
0.13246
0.178333
0.153233
0.209509
0.16248
0.22666
0.159975
2.55689e-08
9.89565e-11
-4.81878e-12
0.00607509
-3.33866e-06
-1.52059e-06
-1.41988e-07
-6.34348e-07
5.32102e-10
-2.35647e-07
-1.27787e-06
-5.77656e-07
-7.00672e-08
-2.41052e-07
-9.37112e-07
-4.4224e-07
-1.1702e-06
-6.05856e-07
-5.2282e-22
0.113712
-1.19576e-06
-6.80649e-07
1.67745e-15
-5.13725e-16
1.87327e-10
2.42802e-11
3.24646e-10
-1.19724e-15
-1.24078e-15
-9.43534e-15
1.63288e-27
2.28118e-10
2.85932e-10
6.46594e-11
0.225148
0.150132
4.03913e-10
9.29993e-10
-5.89646e-07
-4.7853e-07
-1.96814e-07
1.09129e-07
5.87733e-08
1.61119e-20
6.65705e-20
7.57451e-20
2.94816e-20
4.59239e-20
6.48103e-21
1.58127e-20
-4.46792e-22
2.39298e-21
-9.3213e-22
-8.47748e-22
-5.30756e-22
-7.01076e-22
-1.69431e-22
-3.39596e-22
-2.088e-23
-8.2113e-22
-8.70394e-23
-4.87842e-22
-1.88215e-22
-5.20332e-22
1.06923e-23
1.05952e-23
-2.92513e-22
-4.09217e-22
5.62606e-24
3.03428e-24
-3.48236e-22
3.0966e-22
4.65104e-25
-8.48972e-26
-3.32896e-22
1.7718e-21
-1.5765e-25
3.7088e-09
1.75642e-09
4.99227e-09
-1.3574e-25
5.60231e-20
9.30893e-20
1.94713e-27
3.70884e-10
1.12425e-10
2.37028e-13
1.68927e-11
-8.46794e-12
-4.79117e-12
-6.11917e-12
-5.10061e-12
-2.81084e-12
-3.08392e-12
-8.3221e-13
-1.17214e-12
-1.21163e-13
-2.75797e-13
-1.38959e-12
3.17499e-14
-4.3504e-13
-1.41595e-12
-5.62224e-13
-1.20658e-12
-6.19709e-13
-8.84186e-13
-5.82767e-13
-5.0871e-13
-4.50544e-13
-1.19131e-14
-2.04338e-13
-3.08421e-13
5.76542e-13
-1.48167e-13
1.17121e-12
5.06121e-14
1.68699e-12
2.69641e-12
2.62444e-13
2.0072e-12
5.79423e-12
4.8948e-12
2.06791e-12
3.51694e-12
-1.51128e-13
1.61262e-10
4.21752e-12
1.00866e-12
2.20298e-12
-2.17116e-12
1.12613e-12
-5.00741e-12
1.13172e-13
-7.13176e-12
2.9593e-09
6.07722e-09
-1.456e-11
2.87469e-10
-8.12065e-13
-8.33843e-12
-2.88009e-11
-2.46515e-11
-4.81586e-26
-8.50924e-12
-1.91723e-11
-3.1872e-11
-1.79329e-11
-4.89695e-16
-3.82756e-16
-1.17262e-15
-2.37766e-16
-1.01747e-15
-1.09084e-16
2.87358e-17
4.56375e-17
2.2766e-17
1.98912e-17
4.79607e-17
1.54144e-17
2.37171e-18
3.83916e-19
9.64028e-18
-8.76144e-19
-8.32937e-19
-7.5899e-19
-1.45228e-18
-6.45352e-19
-1.58155e-19
-7.4289e-20
-4.86321e-19
-1.38353e-20
2.38756e-20
2.36293e-20
-5.84516e-23
3.94733e-21
-1.31263e-11
-8.13192e-12
2.15522e-11
3.9739e-11
2.21584e-10
2.22128e-10
5.09757e-11
2.01807e-10
5.59637e-10
4.09499e-10
1.68379e-10
2.75761e-10
4.03854e-10
2.10049e-10
1.67271e-10
8.4227e-11
8.88975e-11
-5.85765e-12
-4.54913e-10
-5.2035e-10
-6.32129e-11
-5.2105e-10
-2.00712e-09
-1.6319e-09
-4.60801e-09
-3.23636e-09
-1.24868e-09
-2.15433e-09
-9.04001e-10
-1.33383e-09
-5.34233e-27
-1.42758e-25
1.20144e-10
-7.38802e-11
-7.08999e-11
-5.30543e-11
-3.41997e-11
-1.263e-11
-4.98721e-12
5.04248e-13
1.06535e-12
9.32054e-13
6.1946e-13
2.53768e-13
1.0666e-13
-5.60389e-16
-1.52542e-14
2.9779e-14
-1.37404e-14
-2.77848e-15
-9.44869e-15
-9.94873e-15
-1.08648e-14
-3.02747e-19
4.17604e-08
-8.16249e-07
5.8532e-13
6.47599e-22
6.48349e-21
1.37905e-10
2.08415e-27
-1.2974e-26
-2.25437e-22
5.72464e-08
9.98906e-08
3.0993e-08
3.02212e-08
1.59462e-08
-1.84809e-26
-8.42238e-26
9.22225e-28
-6.13423e-15
-9.13573e-15
3.15125e-20
7.16514e-20
6.40862e-21
6.14415e-28
3.98626e-28
-5.48323e-16
9.72488e-21
7.01281e-21
-6.16082e-10
-7.76778e-10
3.81627e-07
-2.37546e-08
-6.80201e-09
-4.44557e-07
0.214114
0.309812
0.131653
5.83718e-14
3.97538e-14
3.93959e-14
1.26893e-14
7.55498e-15
3.92895e-16
-8.93966e-16
-8.5392e-16
-6.41977e-16
-4.67904e-16
-4.60399e-16
-1.52889e-16
-2.02245e-16
-2.74778e-17
-5.45471e-17
2.1925e-18
1.81633e-21
0.00339282
1.52395e-29
-1.1507e-29
-9.77064e-16
0.298027
0.417387
4.29434e-09
6.48839e-09
-3.97154e-10
-4.19872e-10
-5.37572e-10
-2.14666e-10
1.62378e-10
8.41538e-22
7.80297e-24
-2.0637e-10
-3.1712e-11
5.92739e-10
6.29228e-10
5.88744e-11
5.75299e-10
1.48663e-08
-6.42252e-18
1.58958e-27
-2.59717e-26
1.29943e-20
2.09045e-06
-3.3386e-08
-1.40383e-08
4.7174e-10
0.394317
1.37821
3.44051e-05
-2.34779e-14
-0.000213993
4.09993e-21
1.14231e-06
-3.19355e-07
-1.15052e-07
-1.86295e-07
-1.06722e-07
-1.22513e-14
-1.06682e-08
0.0886022
1.06417e-10
6.50815e-11
4.88564e-11
-4.51048e-15
9.6928e-13
6.02326e-13
-7.53472e-14
1.8949e-13
-2.97467e-12
-1.11167e-12
-7.20498e-12
-3.25589e-12
-1.06283e-11
-5.46512e-12
-1.05154e-11
-1.88376e-11
-5.42348e-12
2.86863e-12
7.69596e-11
1.96024e-10
2.77088e-11
1.81695e-10
7.96046e-11
2.76714e-10
1.30752e-10
2.83304e-10
1.47434e-10
2.29979e-10
3.6707e-10
1.29373e-10
-5.12997e-11
-4.4636e-10
5.97166e-11
-2.03534e-09
-5.04263e-09
-8.78704e-09
-1.9057e-08
-3.70687e-13
-3.92093e-09
0.00127281
2.83176e-05
-0.000195624
0.405099
0.549499
0.537784
0.7062
0.69706
0.885705
-1.11719e-08
5.12651e-08
8.35594e-08
-9.74377e-08
-7.47289e-08
2.99185e-27
1.87021e-27
1.28757e-20
4.36224e-20
9.58007e-20
7.95221e-20
-3.26704e-15
-6.13816e-15
-9.10806e-16
2.20032e-27
-1.99899e-29
-1.53372e-29
7.85042e-09
8.30214e-09
-3.74521e-28
3.99063e-18
-3.68115e-22
-2.32076e-10
3.02217e-11
2.20792e-11
1.66515e-06
-1.14807e-08
-5.45231e-09
0.881921
2.18559e-08
-1.65911e-08
-1.14288e-14
3.75032e-14
2.07451e-21
9.41471e-11
4.80025e-10
0.0700507
0.0449185
4.6675e-06
3.01227e-09
-1.16171e-19
6.45096e-20
-3.38068e-22
1.0821
0.0013249
0.000396162
4.18618e-08
6.32861e-08
3.36072e-21
9.80449e-11
3.75506e-10
1.38124e-11
9.82402e-12
-4.5587e-30
-2.55344e-30
0.0311241
0.01877
-0.0030763
5.58267e-09
4.24351e-09
-1.96473e-08
4.08467e-09
6.62008e-28
2.30195e-18
-1.73573e-17
6.97002e-09
-1.26495e-22
-4.71847e-08
-1.92143e-16
1.53138e-16
2.37821e-28
4.27082e-09
1.09428e-09
0.0108059
0.00593656
0.00240019
1.83548e-13
-1.34868e-08
8.77302e-11
2.79439e-10
1.21114e-27
1.80306e-07
5.55941e-08
-1.17592e-08
-5.94744e-09
4.24495e-21
1.091
0.00103093
0.00309504
-9.94167e-05
1.62495e-05
9.53855e-10
6.51942e-10
2.32889e-18
2.12286e-18
-5.84623e-12
-7.02899e-19
-2.85862e-17
2.09767e-09
-1.49559e-29
1.76708e-11
1.70063e-31
2.37858e-31
-1.2864e-30
2.29082e-31
-6.01529e-31
-7.02626e-30
-4.48007e-18
-8.39504e-23
-5.25897e-24
1.28697
2.01961e-10
7.96888e-11
8.10229e-10
2.00073e-31
-2.2722e-31
8.95783e-32
1.99442e-10
4.32429e-10
6.21451e-12
4.30458e-12
6.34771e-12
2.80917e-13
5.15353e-13
1.22544e-12
-1.05632e-18
-3.61312e-19
7.79556e-20
-3.59329e-20
-0.000227302
-1.19188e-08
-4.00291e-08
-2.70322e-08
-8.17509e-08
-5.89973e-08
-1.62014e-07
-1.24168e-07
-3.09422e-07
-2.52553e-07
-5.68331e-07
-4.98192e-07
-1.00788e-06
-9.5502e-07
-1.74302e-06
-1.76783e-06
-2.93184e-06
-3.12953e-06
-4.82915e-06
-5.32062e-06
-7.58779e-06
-8.78113e-06
-1.09791e-05
-2.45743e-06
3.34928e-06
-1.44352e-05
1.99262e-05
8.19945e-05
0.000178378
6.1059e-05
0.000368953
0.000640034
0.00119863
0.00073154
0.00218303
0.00294927
0.00507658
0.00597774
0.00983103
0.00853203
0.0158124
0.0163619
0.0252901
0.0248684
0.0383255
0.0363997
0.0532459
0.056881
0.0762061
0.0825951
0.106701
0.0903818
0.122208
0.146164
0.161989
0.19584
0.210789
0.0962526
-4.78591e-06
-8.79716e-07
0.256799
0.269043
-3.3991e-07
0.206193
0.254337
0.336359
0.306624
0.211913
0.245386
0.361018
0.277316
0.415113
0.305725
0.465895
0.328659
0.510268
0.344347
0.545104
0.351477
-1.63283e-07
0.567859
0.221255
0.350229
0.19918
0.15405
0.574681
0.57671
0.33956
0.182437
4.37118e-06
3.08205e-08
4.27532e-08
-3.80242e-29
2.17191e-09
1.19509e-16
7.38191e-17
1.37268e-10
5.9693e-20
2.7531e-12
1.06481e-09
-2.28755e-29
-4.76495e-18
-3.59765e-17
5.35749e-19
-2.0305e-23
6.48635e-09
-3.23367e-09
-4.43663e-08
-8.5725e-08
-2.18262e-07
-2.68703e-08
2.38547e-19
0.0188207
1.14667
-4.11209e-15
0.500135
0.000347456
0.00150907
1.71009e-14
0.000451851
8.54041e-05
1.9466e-09
3.29086e-10
1.74493e-10
1.14632e-20
-8.97442e-21
3.89507e-24
-4.34095e-23
5.10289e-24
3.50558e-07
1.3632e-07
1.19972e-08
4.91855e-08
-8.85665e-10
1.5806e-08
-9.62249e-09
-5.12504e-09
1.312
1.32021
2.97178e-20
5.07867e-05
-3.89296e-08
-1.68345e-08
-9.45966e-09
4.83689e-06
-2.90727e-09
-2.66706e-09
-1.38184e-09
-1.34437e-09
-6.38635e-10
-6.58523e-10
-2.8694e-10
-3.12305e-10
-1.25282e-10
-1.4332e-10
-5.30748e-11
-6.43432e-11
-2.18542e-11
-2.8177e-11
-1.25011e-11
-8.73985e-12
-1.20208e-11
-2.90225e-11
-1.29441e-11
-1.0364e-09
-3.38589e-12
-2.31423e-11
-1.10502e-11
-2.36162e-05
0.664634
-1.17635e-16
-1.80014e-16
-5.44679e-18
-2.91168e-17
8.99359e-18
-3.53486e-05
-0.000873712
0.0171426
2.68676
-1.31782e-18
0.00104588
2.79478e-06
-3.0363e-07
-4.37894e-07
0.167028
0.0771188
0.320225
2.70944e-12
3.71334e-12
1.15231e-12
1.34548e-12
8.25563e-13
-4.42442e-10
1.29295e-08
6.32406e-20
1.66298e-31
-2.37665e-32
9.79197e-10
3.82279e-18
-3.73992e-20
-9.15777e-18
-3.7612e-17
-8.41951e-20
0.182721
2.61259e-09
-2.05034e-12
-1.30356e-11
0.000123434
-2.98496e-06
-2.70264e-05
8.57623e-08
3.85454e-05
0.000669276
1.09554e-07
1.06592e-07
-3.03945e-18
-3.18802e-09
-1.55328e-10
-3.28472e-09
4.06069e-09
1.09355e-09
5.35256e-10
2.00974e-08
-1.281e-29
-3.05275e-29
-2.50563e-30
3.61539e-20
5.66532e-20
3.55623e-17
7.35959e-17
-5.21221e-20
-1.28968e-17
-3.11896e-17
-5.37504e-08
0.0779661
0.0168304
1.35076e-20
-1.48644e-12
4.59963e-18
5.16071e-20
4.3313e-24
1.36271e-24
-3.01252e-05
-4.08848e-05
1.08963
1.21286
3.1599e-14
-4.69895e-07
-9.30661e-08
0.794118
0.0654196
0.0241454
1.28632e-12
3.45559e-10
1.74247e-10
1.29048e-31
6.8438e-32
-2.48945e-30
-1.40219e-30
-7.96456e-30
-5.64651e-30
-9.44323e-30
-8.69177e-30
4.8141e-29
2.38958e-29
2.90959e-28
1.95268e-28
5.88339e-28
4.39668e-28
-1.14643e-28
2.12355e-28
-6.82954e-27
-3.56078e-27
-2.09879e-26
-1.39978e-26
-2.84333e-26
-2.27746e-26
6.6503e-26
1.49013e-25
8.28963e-25
5.1821e-25
1.63566e-24
1.14648e-24
7.60044e-25
-5.81658e-25
-2.19026e-23
-1.08232e-23
-6.52323e-23
-1.00855e-22
-1.1333e-22
-9.25691e-23
2.98428e-22
9.64282e-23
1.97025e-21
3.25665e-21
6.14569e-21
4.14138e-21
3.99951e-21
7.75204e-22
-5.99985e-20
-2.81687e-20
-1.95538e-19
-3.15296e-19
-4.20209e-19
-3.02939e-19
2.67363e-19
1.08249e-18
-6.78463e-20
7.18387e-18
1.28389e-17
2.44269e-17
3.54788e-17
2.22565e-17
6.94434e-19
-3.03321e-16
-6.17453e-16
-1.39058e-16
-1.56839e-15
-2.46677e-15
-2.87778e-15
-3.37736e-15
7.85308e-15
1.97151e-14
8.168e-14
1.33765e-13
4.47523e-14
4.24791e-14
2.10974e-13
3.01721e-13
3.91314e-13
-6.54292e-17
3.20554e-13
4.53069e-13
-7.48131e-13
-2.05473e-12
4.20569e-13
-4.49876e-12
-1.50462e-11
-2.30693e-11
-8.71659e-12
-3.41254e-11
-4.57593e-11
-5.42247e-11
-4.80115e-11
-5.55811e-11
1.349e-10
3.30448e-10
-2.97795e-11
6.64428e-10
2.01291e-09
2.921e-09
4.55177e-09
5.47214e-09
5.11139e-11
2.63128e-09
-2.36424e-09
4.10196e-09
6.16626e-09
-1.26299e-08
-7.27781e-08
-1.21019e-07
-2.62427e-07
-3.52629e-07
-3.13314e-08
-4.5433e-07
-5.03732e-07
7.68292e-08
7.75848e-07
-4.79e-07
2.05169e-06
8.13938e-06
1.26257e-05
4.10892e-06
1.83736e-05
3.27934e-05
4.02544e-05
4.73475e-05
4.77198e-05
-2.64934e-07
7.11059e-06
-2.0534e-05
-9.47277e-05
3.57354e-05
1.93506e-05
-0.000475719
-0.000763498
-7.63981e-30
-4.80261e-20
6.71558e-09
-1.45486e-11
-8.86126e-12
-1.12154e-11
-4.90908e-12
-7.68322e-12
-2.35844e-12
-4.46711e-12
-9.68245e-13
-2.39694e-12
-1.21251e-13
-3.23142e-13
-1.11941e-12
-6.0383e-14
-4.41569e-13
-2.02898e-12
-1.05165e-12
-2.40123e-12
-1.56643e-12
4.57127e-13
-1.04013e-12
9.52926e-12
2.78262e-12
2.46912e-11
1.04626e-11
3.84975e-11
2.00029e-11
3.76447e-11
2.5967e-11
-1.89022e-11
9.93838e-12
-1.49898e-10
-4.72964e-11
-2.37086e-08
-5.3999e-20
-2.65026e-19
-1.43428e-11
-7.4375e-12
-5.13737e-12
-3.63087e-12
-2.49458e-11
-2.31465e-12
-1.71404e-12
-1.54971e-12
-9.41223e-13
-5.3152e-09
-7.29697e-09
-2.22005e-15
-8.95829e-15
-4.28102e-13
1.05252
1.28501
1.54371e-12
1.95438e-12
4.14035e-07
3.41111e-07
2.50497e-08
8.91552e-08
8.01954e-13
-5.03089e-08
-5.48463e-17
-4.2896e-18
-7.71874e-17
3.48274e-11
0.000478785
-1.87491e-11
-5.90187e-08
-8.61681e-08
-1.88997e-19
4.66619e-21
-1.25375e-20
-5.3959e-21
-9.93804e-19
-1.39996e-17
-8.80285e-17
-4.7162e-13
-2.76571e-09
4.31874e-10
1.40282e-11
-4.42841e-30
-1.76334e-29
1.82667e-20
4.01023e-21
1.33594e-17
3.9312e-17
5.73243e-19
-1.45601e-17
-2.11995e-17
2.54166e-31
4.17381e-10
1.17611e-09
3.13988e-13
1.12296e-08
9.2349e-09
5.46054e-10
2.671e-10
7.6009e-25
-2.88524e-26
1.1847e-25
-3.40858e-10
-1.43515e-10
-3.49319e-18
4.22676e-17
-9.88219e-18
9.16932e-17
-3.74074e-07
-6.09711e-12
4.67596e-10
1.2798e-10
6.71432e-13
8.92816e-15
-4.92668e-13
-1.00671e-13
9.14307e-13
2.73669e-13
1.78805e-05
-4.521e-12
-9.13761e-12
5.42837e-07
3.78343e-06
-4.1653e-07
-1.21715e-26
0.0179748
-7.83995e-05
0.000253713
-0.000233218
0.00171129
0.000832326
0.00312188
0.00165343
0.00473445
0.00262947
0.0062956
0.00361055
0.00141368
0.00201344
-1.14626e-07
-1.35647e-07
-0.00174109
-0.00233846
-1.83303e-27
-7.24266e-30
-2.33588e-17
-8.98377e-17
3.68967e-12
2.82223e-11
-2.27371e-05
-2.6588e-05
-3.77762e-19
-7.03027e-19
-7.25693e-19
-6.90976e-19
-1.16783e-18
6.65001e-09
2.3382e-08
-8.89848e-17
-0.00390454
0.003823
0.00653191
1.54128e-27
1.83215e-27
5.28363e-28
7.73203e-28
4.91603e-29
1.34214e-28
0.935905
1.00299
1.31842
2.62515
4.29727e-18
1.10136e-18
5.91856e-19
0.271627
-5.10341e-16
-4.46377e-15
1.55535e-12
-1.81038e-13
2.68926e-14
-1.42106e-12
-8.48429e-13
-4.84088e-12
-3.9894e-12
-1.09178e-11
-1.05096e-11
-1.55887e-11
-2.77389e-12
-9.43461e-12
-1.62322e-12
-7.56196e-12
-6.33719e-13
-5.16998e-12
-1.93205e-11
9.82592e-14
-1.3645e-07
1.29779e-08
5.80396e-09
1.05971e-08
4.52533e-09
8.07674e-09
3.29238e-09
5.72342e-09
2.22296e-09
3.74768e-09
1.84846e-09
1.38178e-09
2.2464e-09
6.14425e-09
3.53631e-09
9.78483e-09
5.37988e-09
1.51133e-08
7.88719e-09
2.59159e-09
3.51811e-09
1.1096e-08
4.46406e-09
1.48723e-08
5.14206e-09
1.05794e-09
6.44151e-10
4.92935e-09
-2.95986e-10
-7.07237e-10
-1.47315e-09
-6.94938e-10
-1.10094e-09
-4.12219e-10
-5.52076e-10
3.55201e-09
-1.61081e-09
-6.73733e-10
-1.64811e-10
-1.34759e-10
-2.81998e-10
-6.47864e-12
3.08674e-11
-2.14977e-09
0.956631
1.1841
4.52549e-09
5.67841e-09
7.90517e-13
6.32321e-13
3.36246e-10
1.59069e-10
8.34672e-11
7.12399e-11
3.79066e-11
3.01726e-11
9.13266e-32
1.63022e-11
2.61646e-11
4.42649e-11
8.7655e-11
6.67494e-11
-2.32745e-29
7.81404e-10
2.41774e-11
2.85006e-11
7.65282e-22
1.76273e-21
-6.78625e-26
-8.95679e-31
-6.76035e-20
-1.64828e-19
5.47584e-18
1.3092e-16
-1.763e-09
-4.0523e-10
-2.47952e-09
-3.02612e-12
5.20935e-13
4.29758e-13
3.96506e-13
1.57043e-13
1.04889e-13
-4.19775e-26
-1.17399e-25
3.13221e-18
-1.47469e-19
-4.96567e-10
-2.47824e-10
-5.36151e-11
-1.13352e-10
-3.06061e-10
-1.59268e-10
-1.40278e-10
2.53946e-11
0.0192541
1.15357e-14
-2.6993e-15
1.05589e-09
3.72451e-10
0.000733763
0.00109069
9.04491e-11
2.81241e-11
4.92383e-12
1.64929e-12
2.29432e-11
-3.25617e-12
-3.32207e-12
-5.13713e-12
-9.94617e-12
-7.03751e-12
-2.38457e-12
-2.31798e-12
-8.60343e-12
-1.89429e-12
-1.60912e-13
1.81764e-13
-1.07969e-12
5.99345e-13
5.03629e-14
9.58601e-13
1.35387e-12
1.23925e-12
4.40841e-13
4.01569e-13
7.31112e-14
2.27317e-14
2.66492e-12
-1.8717e-14
-3.46441e-14
-3.2588e-14
-4.42694e-14
-1.57793e-14
-1.42061e-14
-4.98472e-14
-1.06137e-14
-6.38655e-16
-0.000168675
-0.000150737
1.05838e-06
8.02381e-07
-2.06905e-07
-2.01618e-07
-1.66146e-15
6.02928e-10
4.95939e-10
-4.67123e-11
3.48707e-18
1.72802e-17
-6.32719e-31
-7.06663e-30
4.88209e-09
4.12948e-09
2.70713e-10
1.32769e-10
1.22531e-10
6.06076e-11
2.7038e-22
-7.90984e-22
1.20767e-11
2.15346e-11
-8.1137e-20
-7.44635e-20
4.84802e-10
8.65537e-20
2.18982e-17
1.502e-16
4.02738e-16
2.88345e-16
1.67495e-12
9.15377e-13
4.91925e-09
-1.40456e-25
-2.54199e-27
-4.82549e-14
-7.46553e-11
3.64073e-17
-9.41589e-10
5.11208e-10
4.76011e-12
1.91204e-09
3.98884e-10
-8.90478e-15
-2.06657e-10
0.000366185
0.00057299
0.00141581
0.000769085
0.000291198
0.00040638
2.26916e-09
9.69086e-10
0.00834311
4.6986e-09
2.31317e-09
9.44283e-09
5.17312e-09
1.83538e-08
1.09342e-08
3.39317e-08
2.20482e-08
-6.33271e-12
5.3647e-11
9.73729e-11
3.63217e-10
4.10973e-10
8.63157e-10
8.559e-10
1.08324e-09
3.55601e-10
-3.98485e-09
-6.95611e-09
-2.49442e-08
-2.85766e-08
-6.01568e-08
-5.70943e-08
-5.56281e-08
-3.63752e-09
2.75668e-07
4.39004e-07
-5.97671e-08
1.53238e-09
1.4729e-06
1.66217e-06
1.19363e-06
5.85905e-07
1.72207e-06
3.27856e-06
2.84285e-06
1.64018e-06
5.91044e-08
4.29346e-08
9.86516e-08
8.09449e-08
1.6133e-07
1.46166e-07
2.6111e-07
-1.00421e-18
1.13898e-11
-1.33505e-21
-6.51651e-26
-2.96952e-17
3.30435e-31
2.41552e-31
1.47595e-16
1.75935e-16
-1.68482e-17
-3.90998e-16
1.06788e-21
9.35317e-22
-1.67168e-29
6.80324e-17
-7.17656e-16
-3.413e-15
-3.42899e-15
-9.48628e-16
-3.0037e-15
2.45892e-06
-7.25043e-09
9.64203e-11
2.63926e-10
7.30471e-19
2.84672e-25
2.89855e-24
-2.37925e-13
6.05139e-08
1.47189e-07
1.04756
1.39832
-1.15166e-10
-1.05787e-19
3.24401e-16
0.00755133
0.000922236
0.000500621
-0.000557284
0.000478959
-8.31709e-15
-7.96574e-15
0.726941
-8.6582e-19
6.65422e-06
1.61474e-05
1.10394e-05
-1.22905e-12
-3.49885e-12
-9.83831e-09
2.47792e-07
4.03015e-07
0.00154061
0.0123274
4.2283e-28
0.808456
1.01737
1.42997
1.35114e-06
-3.45907e-07
-2.8014e-07
3.59773e-13
3.76179e-13
-5.3723e-15
-0.00374712
-0.00305106
-0.00442386
-0.00299006
2.70482e-28
-1.25837e-12
-1.11415e-05
-1.0584e-05
-1.08058e-05
-2.87454e-05
2.69844e-07
5.90121e-07