/*--------------------------------*- C++ -*----------------------------------*\
  =========                 |
  \\      /  F ield         | OpenFOAM: The Open Source CFD Toolbox
   \\    /   O peration     | Website:  https://openfoam.org
    \\  /    A nd           | Version:  6
     \\/     M anipulation  |
\*---------------------------------------------------------------------------*/
FoamFile
{
    version     2.0;
    format      ascii;
    class       volScalarField;
    location    "6912000";
    object      Cw;
}
// * * * * * * * * * * * * * * * * * * * * * * * * * * * * * * * * * * * * * //

dimensions      [1 -3 0 0 0 0 0];

internalField   nonuniform List<scalar> 
11831
(
0
0
0
0
0
0
0
0
0
0
0
0
0
0
0
0
0
0
0
0
0
0
0
0
0
0
0
0
0
0
0
0
0
0
0
0
0
0
0
0
0
0
0
0
0
0
0
0
0
0
0
0
0
0
0
0
0
0
0
0
0
0
0
0
0
0
0
0
0
0
0
0
0
0
0
0
0
0
0
0
0
0
0
0
0
0
0
0
0
0
0
0
0
0
0
0
0
0
0
0
0
0
0
0
0
0
0
0
0
0
0
0
0
0
0
0
0
0
0
0
0
0
0
0
0
0
0
0
0
0
0
0
0
0
0
0
0
0
0
0
0
0
0
0
0
0
0
0
0
0
0
0
0
0
0
0
0
0
0
0
0
0
0
0
0
0
0
0
0
0
0
0
0
0
0
0
0
0
0
0
0
0
0
0
0
0
0
0
0
0
0
0
0
0
0
0
0
0
0
0
0
0
0
0
0
0
0
0
0
0
0
0
0
0
0
0
0
0
0
0
0
0
0
0
0
0
0
0
0
0
0
0
0
0
0
0
0
0
0
0
0
0
0
0
0
0
0
0
0
0
0
0
0
0
0
0
0
0
0
0
0
0
0
0
0
0
0
0
0
0
0
0
0
0
0
0
0
0
0
0
0
0
0
0
0
0
0
0
0
0
0
0
0
0
0
0
0
0
0
0
0
0
0
0
0
0
0
0
0
0
0
0
0
0
0
0
0
0
0
0
0
0
0
0
0
0
0
0
0
0
0
0
0
0
0
0
0
0
0
0
0
0
0
0
0
0
0
0
0
0
0
0
0
0
0
0
0
0
0
0
0
0
0
0
0
0
0
0
0
0
0
0
0
0
0
0
0
0
0
0
0
0
0
0
0
0
0
0
0
0
0
0
0
0
0
0
0
0
0
0
-1.69159e-45
2.33842e-23
-2.75549e-22
-5.56836e-43
2.34493e-29
-8.69286e-45
-2.26836e-17
-2.39211e-43
1.212e-46
-3.68965e-43
-5.55263e-18
-8.97119e-28
-6.27475e-14
-1.3369e-44
2.59525e-36
-1.26407e-45
-9.879e-33
3.49448e-45
1.86125e-14
2.67524e-48
5.8991e-47
5.05486e-46
-3.26708e-11
3.98527e-42
-8.42979e-51
-7.38703e-46
1.2514e-10
-4.48067e-38
-3.58591e-47
6.05599e-47
1.77082e-47
-4.9989e-10
2.1088e-46
4.34772e-42
-2.57505e-53
1.1725e-09
1.04776e-48
-3.65038e-51
-2.81752e-49
3.29977e-08
1.0765e-47
-4.94657e-46
-5.36357e-56
-5.4436e-08
1.05664e-49
2.62451e-56
-1.53467e-50
-1.17865e-07
4.99541e-46
1.89562e-21
6.233e-43
1.75642e-24
4.0065e-49
2.04387e-49
-1.24784e-26
8.10656e-45
2.00135e-19
5.07101e-43
3.1586e-30
1.65495e-43
5.41767e-45
1.49642e-57
-6.04484e-33
9.44213e-16
1.25188e-07
-1.20975e-47
1.20856e-15
1.04216e-43
6.62305e-51
-3.74294e-53
1.7253e-60
1.1831e-07
3.60663e-51
-6.61009e-60
-2.50772e-52
6.00034e-08
-1.58837e-44
1.09847e-35
8.40157e-46
-5.8801e-40
-4.07151e-44
1.3747e-47
-1.5118e-38
-1.46887e-45
-1.15849e-45
1.10593e-12
7.88563e-52
-2.69022e-49
-6.49839e-12
-5.16725e-10
6.35449e-49
2.82889e-10
-5.17997e-55
2.41039e-52
2.6135e-08
-3.72672e-62
1.91418e-52
3.17052e-54
1.37284e-62
6.24564e-08
1.61638e-53
6.72753e-49
3.84652e-47
-3.14352e-45
2.16498e-50
-1.01105e-57
-3.02925e-48
-1.71679e-49
2.11072e-48
-3.9078e-48
6.10299e-50
5.10163e-51
-3.52977e-46
-5.44113e-22
1.74403e-19
1.43598e-45
-1.39436e-31
1.16188e-43
-2.96862e-43
-2.04865e-21
-3.82017e-45
1.96997e-24
4.74065e-45
3.69166e-34
2.7379e-43
1.30754e-23
-7.44351e-26
-4.53659e-44
9.34485e-35
-2.11803e-44
2.65157e-46
-2.53833e-50
4.72012e-40
-1.1569e-08
1.30593e-17
5.71695e-44
2.70455e-28
3.6303e-45
-3.14705e-15
-3.22896e-44
9.7055e-48
-9.31703e-09
1.72913e-12
-8.94874e-57
-6.33758e-45
-7.20395e-59
-1.15669e-54
2.83681e-47
3.95238e-51
1.45395e-07
8.61881e-09
-4.21974e-31
-3.29773e-08
-1.86678e-44
5.69222e-29
7.69259e-17
1.31054e-44
3.17477e-50
-1.1103e-14
6.59699e-13
-2.46601e-48
-5.08346e-19
-3.46562e-44
-5.21216e-08
-1.27699e-57
2.19898e-53
2.62671e-09
1.45478e-64
4.10794e-46
-9.198e-45
-2.25582e-44
-1.077e-43
-8.15805e-44
-3.92352e-43
-7.23124e-45
1.14611e-43
2.62336e-42
1.34695e-41
2.42479e-41
1.13824e-40
8.51404e-41
3.99548e-40
5.23234e-40
1.82872e-39
-6.15642e-40
-4.18651e-39
-1.44303e-38
-7.4027e-38
-8.60923e-38
-3.84117e-37
-2.53229e-37
-9.67129e-37
7.21613e-37
4.3191e-36
9.91282e-36
4.99993e-35
4.75422e-35
2.11507e-34
2.48802e-34
9.49749e-34
1.2208e-33
4.27722e-33
5.84091e-33
1.90896e-32
2.7097e-32
8.39013e-32
1.20471e-31
3.64637e-31
5.23715e-31
1.52147e-30
2.22011e-30
5.82345e-30
9.25031e-30
1.93804e-29
3.87744e-29
5.73417e-29
1.62917e-28
1.54957e-28
-4.63657e-28
-2.35432e-27
3.25099e-28
-1.15227e-26
7.19461e-29
-5.49267e-26
-8.34701e-26
-3.48786e-25
-2.56556e-25
-1.41167e-24
-9.76578e-25
-3.71365e-24
-5.55504e-24
-1.26809e-23
3.98547e-24
2.84725e-23
7.60544e-23
3.40209e-22
1.60976e-22
1.48978e-21
8.21092e-22
6.35961e-21
5.70844e-21
2.13756e-20
2.66736e-20
7.89846e-20
3.23821e-20
7.78378e-20
2.90385e-19
1.51959e-19
-5.47534e-19
-2.63045e-18
6.61384e-20
-1.20403e-17
-1.59915e-17
-6.39212e-17
-5.33981e-17
-1.90558e-16
-2.49453e-16
-6.59924e-16
-3.26997e-16
-9.42108e-16
-2.22424e-15
-2.19333e-15
-7.39911e-15
-4.16982e-15
8.39344e-15
3.9489e-14
-4.28736e-15
1.73968e-13
2.29132e-13
8.71137e-13
7.22081e-13
3.23869e-12
2.9644e-12
1.03968e-11
7.84879e-12
1.17418e-11
3.56692e-11
4.15291e-11
1.19595e-10
1.43395e-10
3.91408e-10
4.83246e-10
1.24937e-09
1.58475e-09
3.88898e-09
5.05725e-09
1.17109e-33
1.1798e-08
1.57352e-08
3.48431e-08
2.23731e-08
4.76675e-08
1.7992e-08
5.61206e-08
1.73892e-08
5.61447e-08
6.27826e-08
3.50773e-08
1.28554e-08
9.34145e-08
4.57774e-08
4.46028e-08
4.7939e-09
1.15427e-07
5.04061e-08
2.18278e-08
-5.09997e-09
1.21513e-07
4.77104e-08
-7.47099e-09
1.0858e-07
3.75929e-08
-1.46808e-08
-3.70617e-08
7.98982e-08
2.41064e-08
-1.92127e-08
-5.17238e-08
4.72494e-08
1.21665e-08
-1.73009e-08
2.14838e-08
4.46801e-09
-5.21254e-08
-9.33697e-09
6.65309e-09
8.47679e-10
-3.19658e-08
5.52691e-10
-3.02917e-10
-5.36173e-10
-7.30284e-09
-1.05206e-09
-5.84857e-10
-2.23596e-10
-2.02887e-10
-9.53518e-11
-5.17096e-11
-2.8513e-11
-1.00312e-11
-6.43521e-12
-1.35976e-12
-1.09562e-12
-5.99369e-14
-1.19009e-13
3.99494e-14
3.50675e-15
2.38294e-14
7.13381e-15
7.93183e-15
3.50273e-15
1.7998e-15
9.82886e-16
2.90386e-16
1.94383e-16
2.88984e-17
2.74823e-17
-7.78452e-19
5.23546e-09
2.07544e-18
9.94837e-09
-3.53117e-08
1.6822e-13
-9.38322e-18
-4.91451e-18
1.67144e-08
-1.3562e-07
6.63303e-09
-1.19278e-17
-2.54197e-18
1.83674e-08
-4.62421e-07
-4.36572e-08
-1.43065e-06
-3.83374e-18
-3.82649e-19
-3.46842e-07
-4.12084e-06
-1.53135e-19
9.83043e-20
-1.44086e-06
-1.12122e-05
-4.88511e-06
-2.87084e-05
3.60259e-19
1.13915e-19
4.45691e-07
-1.46291e-05
-6.82253e-05
-3.96776e-05
-0.000147504
2.041e-19
2.78838e-20
2.16617e-20
1.97699e-21
2.5943e-21
-2.41856e-22
-0.00010049
-0.000300929
-1.2172e-21
1.26274e-22
-0.000238484
-0.00058971
-1.64954e-22
-0.00052257
-0.00110501
-4.01063e-23
-0.00103726
-0.00188729
-5.06972e-23
-0.000272069
-0.00192327
-0.00278846
-1.26722e-09
-2.07037e-23
-0.00336411
-0.00363606
0.00356438
0.01341
0.0427033
0.0939764
0.156655
0.296413
0.368414
0.628256
0.630482
0.527962
1.00872
0.88587
2.55211e-09
1.78342e-09
5.46236e-10
8.25126e-11
-2.79949e-12
-8.15045e-11
-3.30613e-11
-2.84457e-11
-1.02091e-11
-3.20392e-12
-7.92839e-13
5.05037e-13
2.43033e-13
2.66268e-13
9.4944e-14
4.22944e-14
1.12113e-14
-2.48195e-15
-1.35247e-15
-1.9714e-15
-6.75993e-16
-3.14721e-15
-3.4522e-16
-9.28451e-17
1.2087e-17
6.84748e-18
1.13869e-17
3.75623e-18
1.53124
1.39984
-9.02298e-24
1.8854e-18
4.96026e-19
-7.02777e-20
-3.57873e-20
6.61638e-18
-5.355e-24
2.19824
2.0819
1.92159e-17
-5.06405e-20
-1.65634e-20
-1.0054e-24
-6.34074e-25
1.1736e-25
5.31881e-25
2.98352
2.91222
-6.89364e-21
-1.70658e-21
-8.63111e-25
4.3368e-29
1.64046e-25
2.76018e-25
4.1291e-22
1.83097e-22
3.83044
3.51494
3.83007
1.77674e-22
5.79438e-23
3.12341e-26
1.7511e-26
5.45289e-22
-3.21892e-27
-1.41151e-26
1.47365e-23
3.16502e-24
1.91642e-23
5.57575e-25
-8.81394e-25
-3.53134e-25
5.94287e-26
-1.17429e-25
-6.24198e-26
-2.0712e-26
-3.5661e-26
-6.5576e-27
8.16736e-29
2.28693e-29
-2.00615e-27
3.73299e-30
8.0094e-29
2.33087e-29
-5.36738e-31
6.75963e-30
4.16601e-30
4.66555
4.72905
-8.88965e-31
1.25739e-30
-2.11576e-32
-4.15776e-27
-6.41704e-27
5.38745
5.50213
4.1758
5.00605
3.12082
3.87058
-6.51176e-28
-1.77367e-28
-1.71941e-27
1.92543
-1.34409e-33
-3.63403e-32
2.50096
1.08416e-28
3.70991e-28
6.05761
0.949295
8.09891e-29
9.48052e-29
7.0636e-28
7.01847e-29
8.55021e-28
-3.07329e-30
-1.02161e-32
-4.05315e-33
1.22022e-19
-1.82672e-29
6.57811e-28
1.32307
-3.06868e-09
-2.48481e-09
2.34225e-18
1.12199e-17
1.76378e-18
5.78625e-18
1.0973e-18
2.45134e-18
5.72108e-19
8.89442e-19
2.59252e-19
2.35387e-19
1.00837e-19
4.62248e-20
3.09011e-20
-5.0675e-21
7.08127e-21
-1.41168e-20
7.79296e-22
-1.12915e-20
-7.09176e-22
-6.89822e-21
-7.53793e-22
-3.63922e-21
-4.99711e-22
-1.72349e-21
-2.73319e-22
-7.47924e-22
-1.33311e-22
-2.95047e-22
-5.8931e-23
-1.07819e-22
-1.9434e-23
-2.40689e-23
-3.39965e-23
-8.88899e-24
-9.61277e-24
-2.97796e-24
-2.07799e-24
-8.97342e-25
-3.33323e-25
-2.25912e-25
1.90242e-26
-4.3303e-26
5.445e-26
5.97277e-25
2.78523e-25
1.78385e-24
7.05345e-25
1.18454e-25
2.6666e-25
1.3886e-24
4.88744e-25
9.70176e-26
1.6695e-25
7.69619e-25
2.49822e-25
5.54667e-26
7.91431e-26
-2.47204e-25
1.79549e-26
2.44989e-26
1.0043e-25
2.98724e-26
7.41806e-27
8.70821e-27
3.27948e-26
9.23677e-27
3.27058e-26
8.95864e-27
2.55722e-27
2.41341e-27
7.93086e-27
2.07066e-27
6.38799e-28
5.32002e-28
1.66299e-28
1.34572e-28
4.26065e-29
3.35312e-29
6.36493e-27
1.07477e-29
8.23361e-30
2.67067e-30
1.99325e-30
5.77186e-30
1.36321e-30
4.75921e-31
3.1776e-31
8.54432e-31
1.12117e-31
7.31262e-32
-3.71404e-22
2.60691e-32
1.66195e-32
-1.36387e-33
3.54855e-34
1.12286e-33
5.98468e-33
0.3409
2.82631e-34
-7.23531e-09
-4.30908e-09
-1.77954e-28
-1.01903e-28
0.543007
8.91321e-34
-1.48329e-08
-6.62328e-09
3.73137e-33
1.35692e-33
9.02091e-35
5.6788e-36
2.3387e-39
3.27572e-30
0.0578999
-2.65762e-08
-8.96733e-09
-4.77117e-28
-1.34114e-27
2.02173e-36
-2.91391e-36
-4.24515e-08
-1.02488e-08
8.27839e-34
3.03944e-34
4.69363e-34
0.145109
0.762763
-6.30898e-16
-5.96414e-08
-9.30926e-09
-7.32842e-08
-3.85546e-09
2.69473e-09
7.24708e-09
3.63313e-09
5.82499e-09
1.63456e-08
7.90279e-09
1.41553e-09
1.10359e-09
-5.37598e-11
-3.18969e-10
-1.92919e-10
-3.21145e-10
-7.58358e-10
-7.712e-11
-7.13398e-11
-4.77695e-12
5.04373e-12
4.52741e-12
8.78834e-12
2.32415e-12
2.14183e-12
1.66139e-13
-1.18461e-13
1.2621e-12
-1.093e-13
-4.36618e-13
-1.03692e-13
-6.09191e-28
-3.48941e-27
-0.0272613
1.06166e-34
0.254262
0.966588
-4.57985e-20
6.72801e-35
-8.57305e-37
-5.59728e-37
0.369078
1.12259
2.37252e-35
1.54715e-34
-8.16323e-13
-1.48525e-12
-4.53623e-28
-5.81022e-31
-4.33061e-27
0.470653
1.21
1.47214e-35
5.23978e-36
2.14048e-33
-0.000143428
-2.00233e-19
-2.42593e-31
8.8914e-22
-2.94203e-33
-1.68074e-37
-7.81637e-39
-2.17307e-38
1.39533e-38
-1.47286e-07
4.60153e-38
0.543252
1.23424
-1.02681e-12
-2.81886e-12
8.9747e-29
3.25056e-29
-1.58548e-13
3.18491e-36
1.14395e-36
4.227e-39
2.3901e-39
0.149647
0.578689
1.17085
-7.37783e-13
8.59101e-08
-8.84776e-13
-3.86998e-12
-9.42664e-14
4.01327e-29
4.1416e-30
0.58194
1.02574
1.7143
1.36606
1.98107
0.838588
6.81452e-37
2.4695e-37
3.91825e-37
7.43534e-40
1.8399e-41
8.53528e-38
-4.10253e-14
-4.54587e-14
1.02707
0.641404
-6.63172e-32
-8.0002e-31
-4.72419e-13
-3.45073e-12
-5.53364e-09
8.37211e-32
5.2726e-38
1.28204e-37
1.83854e-38
9.01359e-42
-1.33567e-41
9.42898e-19
-0.038314
-0.0294636
-0.0260069
-0.0125595
-0.00846532
-0.00186863
-0.000514878
0.000517369
0.000524762
0.00032685
0.000243427
7.48295e-05
3.44123e-05
-5.33687e-06
-8.30122e-06
0.000130126
0.733409
0.462025
-2.00978e-30
-3.43733e-31
-5.63514e-30
-3.81112e-15
-2.07132e-12
-1.32334e-11
-1.26302e-11
-2.65988e-11
-4.03803e-11
-1.57132e-12
-6.76976e-11
3.83789e-10
8.69654e-11
2.18737e-09
1.43639e-09
6.77017e-09
6.61361e-09
1.14038e-08
1.56023e-08
-5.62456e-09
2.11061e-08
-1.60854e-07
-5.18223e-08
-2.68418e-07
-7.39357e-07
-4.82264e-07
-1.18157e-11
1.70076e-08
2.38123e-07
-5.83811e-06
-4.41451e-06
-2.73586e-14
-9.42464e-15
-9.62339e-27
-2.41603e-26
-2.41981e-27
-6.51201e-26
3.02536e-25
-6.02592e-27
2.88336e-24
2.06436e-24
1.05272e-35
1.11367e-38
3.91708e-39
-4.20461e-42
3.6406e-42
-1.81583e-42
-5.13638e-42
3.74905e-43
1.30615e-42
-1.41827e-06
-6.47545e-07
-1.90185e-06
-1.73094e-06
-9.13047e-15
-4.18269e-11
-2.31034e-30
-1.33781e-29
2.75478e-08
0.494773
0.314584
0.261541
2.86865e-43
7.74547e-08
1.22062e-07
0.180815
1.02889e-43
-2.82631e-06
-3.41509e-06
2.32758e-39
8.25636e-40
-6.34125e-11
9.19982e-43
0.131499
-1.03289e-07
8.41351e-08
5.96255e-08
1.08342e-07
3.64836e-08
8.10293e-08
1.97793e-08
1.26936e-09
-8.24644e-10
8.41326e-09
-1.10554e-09
2.78792e-09
-9.07161e-10
3.88684e-10
-6.17395e-10
-3.78883e-10
-3.86665e-10
-1.49875e-10
-6.22835e-11
-2.06054e-10
-2.04872e-11
5.54688e-12
4.22212e-12
-4.76459e-12
2.68428e-12
1.39723e-12
6.52682e-13
4.79541e-14
-9.20869e-15
2.64519e-13
-3.38348e-14
-1.90145e-14
-7.01467e-15
-2.7414e-15
-8.97106e-15
-8.11897e-16
2.12053e-16
1.38317e-16
-3.9728e-15
-1.29221e-09
8.52411e-17
3.72295e-17
-1.5313e-14
0.203794
0.118069
-1.38609e-30
-1.45369e-29
1.45478e-06
-3.87117e-06
1.00068e-05
1.46717e-44
4.81459e-40
1.28444e-39
1.72206e-40
2.79941e-40
5.8883e-41
4.05841e-18
3.21394e-19
-1.01485e-15
-1.60297e-15
0.12505
0.0730763
3.62521e-31
-8.03001e-30
3.17014e-44
9.08749e-41
-1.47165e-18
-7.78484e-19
-3.78925e-19
-3.56809e-19
-3.18545e-19
-1.45195e-19
-3.44849e-20
-7.96863e-21
-2.00631e-19
0.38094
0.564653
0.350596
0.439818
0.278966
0.303439
0.195142
0.183289
0.120922
0.0957668
0.0651896
0.0430411
1.78991e-36
-2.40359e-24
-5.41999e-25
-6.10668e-06
3.12844e-05
1.09708e-05
-5.61598e-06
-2.16356e-06
-5.55589e-06
-7.44744e-06
3.48421e-05
7.59866e-06
-7.47982e-06
-6.56583e-06
7.97699e-05
2.85975e-05
0.00025129
0.000139079
-2.54555e-37
0.133068
0.000454203
0.000332388
3.89505e-21
2.07672e-21
-6.69556e-25
-2.62616e-25
9.85851e-41
9.69957e-22
3.96235e-22
-2.56781e-18
-1.49471e-44
1.92797e-41
-9.52856e-26
-7.82503e-26
0.0304209
0.0165066
6.44612e-17
-1.32162e-16
0.000523641
0.000488706
1.33285e-06
0.0727058
0.0431277
-2.83519e-31
-3.41889e-32
-4.80513e-32
3.06883e-35
-4.80121e-33
8.84079e-34
-3.3027e-35
3.04602e-34
1.10073e-34
5.01873e-35
3.8247e-35
4.92048e-36
6.4509e-36
6.77199e-38
6.45574e-37
-9.63483e-38
3.64482e-35
1.52401e-38
8.0262e-37
8.22491e-38
5.35477e-37
-3.33876e-38
-4.58672e-38
9.65609e-38
1.59531e-37
-4.47689e-39
-2.97245e-40
5.93958e-38
-5.02921e-38
6.8249e-40
1.96409e-39
1.60976e-38
-1.54414e-37
3.03508e-40
-1.6173e-15
-2.46999e-16
-1.15945e-15
2.00026e-40
2.15579e-30
2.60461e-30
-4.80014e-44
1.00658e-25
-1.44792e-26
-2.60258e-26
-8.69329e-27
-4.91403e-27
-2.45123e-27
-6.1166e-28
-4.23046e-28
-4.17844e-29
-4.85344e-29
3.16489e-30
-2.87926e-30
2.26556e-30
3.85774e-31
-3.65715e-30
6.70938e-31
-1.71489e-31
-2.79719e-30
-2.6871e-31
-1.62295e-30
-2.19728e-31
-6.9226e-31
-1.30027e-31
-2.00748e-31
-5.60487e-32
-3.61527e-32
-1.9304e-32
-1.78108e-32
6.67377e-33
-3.5051e-33
1.40674e-32
1.37958e-34
1.0863e-32
1.57484e-31
8.49047e-34
6.25189e-33
4.05446e-32
1.52202e-32
3.01418e-33
3.70474e-33
-1.50015e-33
5.43372e-27
5.03752e-33
-3.03391e-33
5.70122e-34
-3.37111e-33
-1.15021e-34
-2.20029e-33
-1.87174e-34
-1.14032e-33
-2.64952e-16
-5.25058e-16
-5.76493e-32
2.82848e-41
-1.32208e-34
-4.93175e-34
-2.64582e-33
-7.79566e-34
-1.89048e-42
-1.83296e-34
-1.51202e-34
-5.49845e-35
2.16083e-34
3.07506e-24
-7.49937e-24
1.5748e-22
-5.88014e-24
5.03811e-23
-3.5334e-24
-2.57693e-24
-9.82629e-25
-1.10788e-25
-1.3807e-26
-3.7874e-25
2.57901e-27
1.44107e-26
5.44878e-27
2.78253e-27
2.0011e-27
5.62936e-28
1.38441e-28
7.22217e-28
2.86392e-29
-1.88027e-29
-8.32774e-30
4.17792e-30
-3.46179e-30
-1.26549e-30
-4.58773e-31
-7.1945e-39
-1.60827e-37
-1.62918e-35
1.69071e-34
1.61553e-33
7.23028e-34
4.61265e-33
1.62684e-33
2.91362e-34
4.73194e-34
1.42697e-33
2.10796e-34
1.16092e-34
-1.47402e-35
-7.63636e-34
-4.20751e-34
-3.45887e-35
-1.92526e-34
-2.14022e-35
-7.94162e-35
-5.27833e-34
-1.84494e-34
-3.02599e-35
-5.99214e-35
-2.81477e-34
-7.29734e-35
-1.91686e-34
-2.52785e-35
-1.60001e-35
1.7905e-36
-2.59078e-36
3.34708e-36
4.58043e-44
2.29857e-40
3.09339e-16
1.31103e-16
1.52694e-16
2.06838e-17
5.85616e-18
-3.27839e-18
-7.59051e-18
-2.21983e-18
-1.9806e-18
-1.36015e-19
1.29109e-19
8.44471e-20
1.30964e-19
2.28321e-20
9.24125e-21
1.06186e-19
-5.7974e-21
4.42543e-20
-3.95172e-21
-1.57683e-20
-2.00517e-20
-5.86583e-32
8.67681e-09
9.5655e-06
-1.15503e-36
-1.77688e-38
-8.6397e-38
6.05365e-42
-1.55558e-43
3.16666e-44
6.2837e-39
0.0399617
0.0574014
0.0241695
0.0231038
0.0130585
-4.46694e-41
-6.82958e-41
-1.29192e-41
-2.19743e-20
-5.78673e-20
4.12768e-30
1.24867e-29
6.46025e-31
-6.01003e-45
-2.03647e-45
8.22838e-23
2.35521e-32
1.23558e-32
-2.10548e-37
1.81906e-36
-0.000493364
0.000261089
1.13475e-34
0.000203109
0.0122168
0.0203222
0.0053147
1.37484e-30
1.61455e-31
1.39292e-31
-6.44837e-33
-5.59386e-32
-1.96113e-32
-3.87841e-32
-4.61889e-33
-3.45011e-33
-3.14933e-34
-3.91902e-34
1.83803e-35
-2.50801e-35
1.33742e-35
1.87235e-36
3.98547e-36
-1.70983e-38
-0.00560546
2.09621e-46
5.76174e-47
-3.86595e-33
0.00850724
0.0128751
-2.08071e-16
-1.69259e-16
1.05618e-37
7.7594e-37
5.71181e-36
1.9909e-36
8.45217e-42
1.3598e-32
4.73113e-33
2.94472e-37
6.63552e-37
3.92916e-36
1.2234e-36
2.13231e-37
3.70937e-37
0.0113132
1.19906e-36
-4.98269e-43
7.66448e-46
-2.22203e-37
0.678563
2.42394e-09
4.39235e-09
3.49273e-13
1.44532e-10
2.75222e-10
-9.59113e-12
2.41754e-24
2.83257e-08
5.88838e-33
6.98396e-18
0.000368743
0.000428239
0.000237647
0.000352918
-3.76068e-37
-1.38756e-34
0.00625721
4.047e-42
1.28169e-42
8.40682e-43
-1.89597e-38
2.8773e-35
6.47149e-36
-7.35591e-36
-7.08507e-37
-3.07917e-35
-5.80143e-36
-3.85745e-35
-7.64868e-36
-2.40471e-35
-5.2009e-36
-8.46939e-36
-2.57913e-35
3.82632e-35
2.27033e-34
3.4332e-34
1.76475e-33
6.60011e-35
3.18667e-34
6.3924e-35
1.69316e-34
3.68792e-35
5.47941e-35
1.44779e-35
-2.85078e-35
-1.94022e-34
-3.51632e-36
-3.07271e-34
-1.64532e-33
7.93614e-36
-1.43832e-33
-7.18346e-33
-4.40714e-33
-2.02835e-32
-1.06869e-36
-9.40801e-34
-0.00271231
1.56038e-14
-1.09821e-05
0.00559663
0.00774922
0.00348857
0.00444725
0.00206711
0.00243652
1.73589e-33
0.0291791
0.0335358
0.000126764
0.00022847
-1.15816e-41
-7.56378e-43
3.48858e-30
2.21838e-29
1.59815e-29
6.73864e-29
-1.59089e-20
-7.87307e-20
-1.34491e-21
-1.80398e-42
6.06756e-47
1.94755e-47
0.00646157
0.00704922
-1.56396e-42
6.38318e-37
6.79022e-34
-2.22664e-37
2.68496e-43
1.72856e-43
-0.00402155
-1.83429e-33
-4.08207e-34
0.00116679
0.000216232
0.000260478
6.70913e-24
1.08054e-24
3.71661e-32
6.64151e-38
1.09766e-37
0.00144541
0.00130428
2.58201e-20
6.65663e-36
-2.36221e-28
8.96249e-29
1.35915e-34
0.00127945
-0.00485803
-0.0013171
0.0152736
0.014029
1.28455e-30
2.01231e-38
3.17564e-38
5.5664e-44
3.51857e-44
1.40737e-48
5.95274e-49
6.76252e-05
-0.000145766
-1.20071e-09
-1.06413e-16
5.09062e-17
3.19526e-33
0.00351051
6.83473e-44
3.32312e-37
1.76783e-37
0.00503268
-1.1956e-34
5.40034e-05
1.06371e-21
6.18689e-22
2.95306e-43
0.00362554
-3.5689e-17
-0.000182597
-0.000342244
-0.000175904
3.08609e-25
1.41691e-32
5.94671e-39
8.99512e-39
-1.49027e-43
-0.000834713
-0.000112436
-3.01745e-34
-1.10208e-34
-1.31221e-36
0.000629411
-0.000230168
-0.000539429
-6.78211e-05
-0.0049539
4.52088e-38
1.23476e-38
6.51573e-38
3.83211e-38
1.12565e-38
1.02588e-37
-1.47698e-37
0.00182059
6.15493e-44
8.23764e-44
-2.88022e-49
-9.39753e-50
2.42585e-49
-3.24796e-50
9.66846e-50
3.11992e-48
4.6361e-35
-4.93995e-35
-1.78072e-35
0.000645846
1.8945e-13
1.96368e-13
1.61889e-24
-1.04657e-50
4.03853e-50
-5.43716e-51
2.49737e-39
3.31191e-39
1.14227e-44
7.09175e-45
2.08008e-44
-2.23781e-23
-3.23626e-23
-3.27451e-19
-2.54101e-27
-1.19309e-27
3.40649e-28
4.71069e-28
1.54884e-15
-3.54013e-32
-9.16159e-32
-1.72029e-31
-4.05431e-31
-8.22355e-31
-1.76156e-30
-3.83492e-30
-7.58133e-30
-1.72585e-29
-3.21151e-29
-7.60858e-29
-1.32079e-28
-3.2885e-28
-5.18961e-28
-1.39025e-27
-1.81397e-27
-5.76194e-27
-4.68933e-27
-2.36171e-26
-9.99288e-27
-9.49935e-26
-3.72296e-27
1.49766e-25
7.86894e-25
1.98286e-25
3.96935e-24
4.01903e-24
1.86602e-23
1.93024e-23
8.48879e-23
6.3528e-23
2.76648e-22
3.7819e-22
1.18747e-21
7.51146e-22
3.12472e-21
1.7645e-21
7.13096e-21
1.28071e-20
2.83844e-20
1.43261e-20
5.53792e-20
1.11236e-19
2.10619e-19
9.57181e-20
3.52928e-19
7.87716e-19
1.27849e-18
2.89557e-18
4.54743e-18
1.83724e-18
6.31037e-18
1.58715e-17
2.12401e-17
5.43189e-17
7.00156e-17
2.3364e-18
-5.10615e-26
-1.65011e-30
1.82157e-16
2.25834e-16
-1.25194e-28
7.92742e-17
2.46116e-16
7.11813e-16
7.48608e-16
2.39693e-16
6.9923e-16
2.22658e-15
1.98749e-15
6.46166e-15
5.49701e-15
1.82762e-14
1.47729e-14
5.03078e-14
3.85155e-14
1.34566e-13
9.72485e-14
-5.25305e-31
3.49251e-13
1.2891e-16
2.37325e-13
1.01838e-14
2.04729e-16
1.95591e-14
8.78006e-13
5.58488e-13
1.33378e-13
-0.00382783
0.00580941
0.00419995
3.36916e-44
0.0017769
7.06619e-22
1.06534e-22
6.80278e-40
5.22722e-28
2.3206e-45
0.000903412
6.8463e-46
1.55732e-38
-1.95481e-37
-6.04278e-39
-4.87324e-35
-3.718e-17
1.6964e-16
1.48775e-15
1.13813e-15
4.09828e-15
3.42453e-32
-3.35607e-38
-8.57481e-05
0.00115983
4.40923e-29
0.00137065
-0.000262198
-0.000727273
1.90348e-19
-0.00278517
-0.000278919
5.86874e-38
3.87005e-41
1.10123e-41
7.96753e-38
1.90824e-36
-6.41875e-36
-1.76425e-35
2.61544e-37
-0.00302033
-0.00121556
0.000121922
-0.000366029
0.000122603
-4.03473e-05
3.4466e-34
4.90352e-35
0.000554809
0.000325046
-6.50382e-34
2.26595
7.14153e-06
-3.57886e-06
-5.49406e-06
1.52569e-19
-2.93372e-35
5.60655e-36
-6.95804e-36
3.02289e-37
-1.56772e-36
-8.52719e-38
-3.41846e-37
-4.35552e-38
-7.31121e-38
-1.62284e-38
-1.53917e-38
-4.50656e-39
-3.226e-39
-1.07346e-39
-6.9714e-39
-6.65067e-40
-2.36585e-40
1.07262e-40
-3.08595e-42
2.61836e-36
-1.34592e-40
4.37148e-40
7.10716e-41
-1.40403e-24
0.0084247
-3.43223e-23
-6.6336e-23
-1.33566e-23
-3.20798e-23
-3.50068e-25
4.6382e-10
-4.02321e-11
-1.39588e-08
2.41255e-07
-1.88083e-42
1.37232
3.76058e-32
1.52703e-15
7.2207e-16
2.89277e-13
5.91604e-14
1.26383e-12
4.12028e-45
1.14946e-44
-2.16535e-22
-1.20025e-22
-2.49876e-22
9.52028e-32
3.38892e-32
1.61122e-27
-2.98213e-51
1.87299e-50
0.000841108
-3.40639e-24
-7.75017e-39
-1.07899e-38
-1.43254e-37
-1.29336e-38
0.16882
2.17743e-21
3.2981e-14
7.62287e-15
-0.000858507
0.000139919
0.000114691
-0.00125776
-0.000259717
-0.000862762
1.95908e-31
6.46643e-32
-1.38363e-26
-3.26459e-06
-1.54476e-06
8.16869e-05
4.86485e-05
0.000830831
0.000428566
0.00145492
-4.84831e-45
-6.57206e-45
-1.4124e-45
3.57449e-28
2.27537e-27
7.76192e-24
3.62627e-22
-1.2027e-39
-1.44762e-38
-7.24167e-38
7.44023e-12
0.662796
-1.34013e-07
6.80798e-33
-8.20289e-30
9.3673e-25
-2.81152e-39
1.2835e-37
1.54352e-37
0.000116361
6.66598e-05
0.000859625
0.000384439
-4.11124e-32
-2.93491e-15
-3.45433e-14
4.34665e-13
1.13985e-13
1.78693e-14
-2.4422e-22
4.93678e-41
1.33809e-41
-7.26223e-52
7.50621e-51
4.80995e-50
1.54731e-50
-7.90327e-50
-3.73896e-50
-1.15219e-48
-3.85596e-49
-1.50502e-48
-3.78302e-49
6.65451e-48
2.45084e-48
1.48049e-47
4.49294e-48
-1.99811e-47
-8.56423e-48
-2.82211e-46
-9.13779e-47
-4.30094e-46
-1.33365e-46
6.75984e-46
2.17256e-46
5.35188e-45
1.78739e-44
2.26072e-44
6.43015e-45
-3.87228e-44
-1.14003e-44
-1.68834e-43
-6.75131e-43
-3.98745e-43
-6.63841e-44
3.93253e-42
1.28678e-41
1.94274e-41
5.76393e-42
-2.57098e-41
-7.63036e-42
-2.0949e-40
-7.61682e-40
-8.79304e-40
-2.3192e-40
8.1068e-40
3.0589e-39
2.09567e-38
5.07771e-39
2.25366e-38
8.63444e-38
4.03485e-38
1.33012e-38
-2.42504e-37
-9.70713e-37
-6.08933e-38
-4.23864e-36
-1.57701e-35
-1.91717e-35
-7.35535e-35
5.75541e-35
2.28149e-34
1.61121e-33
6.32408e-33
4.03016e-34
6.30793e-33
2.53502e-32
-5.32477e-33
-2.94932e-32
-3.30714e-31
-1.4547e-30
-1.77576e-30
-6.8912e-30
-4.62606e-31
-6.24414e-30
-2.70712e-29
-9.37104e-30
-2.1986e-29
9.01514e-34
-1.06747e-28
-3.86163e-29
8.96854e-28
3.98839e-27
1.73887e-29
1.74409e-26
2.59091e-26
9.54489e-26
7.46055e-26
3.55189e-25
1.6735e-25
4.0137e-25
1.33553e-24
7.56542e-25
-9.0387e-24
-3.93968e-23
4.47054e-25
-1.67686e-22
-2.45408e-22
-8.67314e-22
-5.49006e-22
-1.3883e-21
-9.494e-24
3.39073e-21
1.49961e-20
7.27402e-22
-3.02796e-21
6.45735e-20
1.34018e-19
4.53786e-19
4.27237e-19
1.25274e-18
2.71879e-19
-5.03479e-19
-3.14545e-18
-1.13638e-17
-4.4433e-17
-1.53268e-17
-1.65166e-16
-1.58727e-16
-5.31671e-16
-5.72572e-16
-1.71371e-15
-2.80429e-16
2.33273e-16
7.34221e-15
2.91892e-14
-2.79686e-18
-1.87491e-15
4.54364e-14
1.48338e-13
1.11437e-13
1.30946e-14
1.21342e-13
3.62013e-13
-5.93282e-46
-3.909e-40
-1.1792e-18
-4.50139e-15
-7.37788e-15
-1.20279e-14
-7.54608e-15
-1.95755e-14
-4.26155e-15
-1.9799e-14
-9.76783e-16
-1.13488e-14
4.21706e-16
9.10256e-16
-2.98789e-15
1.24504e-15
1.65728e-15
-2.74859e-14
-8.1165e-15
-1.01196e-13
-6.17247e-14
-2.00088e-13
-1.9278e-13
3.92441e-14
-3.35127e-13
2.59312e-12
3.75891e-13
1.11022e-11
5.13946e-12
2.32514e-11
1.83123e-11
2.16497e-11
3.40023e-11
-1.61432e-10
3.60962e-12
2.54301e-31
1.93438e-36
1.08593e-35
4.2547e-40
7.45827e-41
1.11545e-41
1.28943e-41
2.38805e-39
1.65684e-42
2.19595e-42
1.00332e-41
1.78304e-42
4.79035e-34
2.59824e-33
-4.1179e-25
7.40343e-26
5.21045e-23
0.000274458
0.00014598
2.23903e-45
5.93185e-45
3.40289e-31
1.06434e-31
0.000488427
0.0109516
-2.91732e-23
7.15915e-32
-7.6448e-23
-1.54015e-23
-1.73268e-22
1.29023e-33
-0.00536071
-1.24803e-17
6.34552e-31
1.04269e-31
2.33098e-27
7.09756e-27
1.78465e-40
8.06153e-40
1.29976e-39
-4.81297e-23
-3.32051e-22
2.371e-15
4.1182e-05
4.45261e-05
9.67374e-12
-9.08271e-45
-3.55261e-44
8.12663e-29
-2.74928e-29
-4.38976e-23
1.76319e-23
-1.77483e-23
-1.05862e-38
-2.50995e-38
-2.09589e-46
-5.12751e-07
3.61861e-08
-3.10629e-13
2.90445e-05
0.0004363
0.000371629
0.000194516
5.49039e-38
7.37013e-39
3.01305e-38
-8.57797e-10
-3.21496e-10
-5.82662e-38
1.12102e-38
-4.7859e-39
2.46036e-38
7.71154e-15
-5.58798e-28
8.94092e-33
7.13605e-33
6.45011e-42
1.17114e-42
3.13553e-43
2.1058e-43
6.79554e-43
1.23951e-43
8.59482e-05
-2.42671e-15
-2.39724e-15
-2.90058e-14
-1.31508e-13
-4.00872e-15
-8.62168e-46
2.57856e-14
-0.000218683
-0.000886627
-2.55619e-05
-0.00196119
-0.0023885
-0.00291499
-0.00436869
-0.00235755
-0.00528366
0.0103234
0.00186708
-0.00810041
-0.00620662
1.4251e-30
-6.28495e-32
3.7548e-14
-1.46905e-13
-2.92586e-47
-1.19179e-49
-1.12844e-22
-5.89875e-22
1.67e-39
8.97596e-39
3.17257e-05
1.34431e-05
3.03505e-36
-2.44377e-36
3.04627e-35
-1.62928e-34
-2.04768e-35
2.13747e-33
1.09438e-32
-1.88757e-36
-2.49854e-09
2.94116e-16
1.71939e-15
-1.69124e-43
-5.56691e-43
2.13137e-44
5.85915e-44
1.44912e-44
4.43449e-44
0.000503214
0.000210514
0.000165431
1.75946e-08
4.7118e-25
1.48867e-25
5.73876e-26
3.51485e-09
-9.67674e-25
-2.42483e-24
6.68077e-34
1.95074e-18
4.79137e-19
7.24615e-18
2.89098e-18
9.47683e-18
5.02861e-18
-1.89063e-17
-3.18149e-18
-1.18179e-16
2.50477e-18
1.9949e-19
1.0672e-18
4.48507e-19
3.96794e-19
2.94404e-19
-5.89534e-18
1.44991e-19
-2.34766e-17
0.00817354
0.00323602
0.00478066
0.00164765
0.00210757
0.000563751
0.000493703
5.70698e-05
-4.52163e-05
0.000503447
-6.34458e-05
-0.000113106
-0.000206164
-0.000164927
-0.000378872
-0.000205678
-0.000539208
-0.000204376
-4.45344e-05
-2.21487e-05
-0.000169416
6.3427e-06
-0.000104624
3.43137e-05
2.0852e-05
2.29698e-05
5.42339e-05
2.13748e-05
4.97507e-06
2.25169e-06
-5.77754e-07
-1.18114e-06
-5.18637e-07
-4.67637e-07
5.98386e-05
-1.30032e-06
-3.55618e-07
-4.09334e-08
1.24636e-08
-4.90729e-07
2.27626e-08
2.2483e-08
-1.20865e-06
0.00010577
5.82171e-05
-1.8507e-17
-6.78115e-18
1.13679e-45
4.32165e-46
5.86667e-41
1.51455e-41
3.49092e-42
3.76369e-42
8.77147e-43
9.043e-43
2.8407e-51
2.12621e-43
7.29159e-09
4.56806e-09
1.9374e-08
1.78695e-09
4.83687e-46
-4.49743e-05
-5.47506e-10
-7.4768e-10
1.47394e-40
1.86241e-40
-2.72156e-39
-1.90263e-46
-4.85071e-27
-3.42196e-27
5.51246e-40
2.03932e-38
1.87486e-05
2.67295e-05
7.92873e-06
1.57882e-19
5.26053e-20
1.16161e-20
2.43958e-21
-1.88908e-21
-8.74609e-22
3.85704e-44
8.39856e-41
-1.73961e-33
-1.56016e-33
-2.00143e-09
-1.24618e-09
-4.63041e-11
-5.37803e-10
-2.39773e-09
-1.60856e-09
-1.90511e-09
1.15256e-12
-0.000653544
-4.51807e-22
-1.69608e-22
4.47085e-32
3.8362e-32
-0.0107823
-0.0127351
-2.0072e-10
-6.70542e-10
-2.20445e-10
-1.23397e-10
-5.39364e-10
-4.3053e-11
1.59027e-11
1.7031e-11
4.4329e-12
1.38958e-11
4.42992e-12
2.19534e-12
1.03399e-11
6.74519e-13
-3.01707e-13
-2.75689e-13
-8.25446e-14
-2.00883e-13
-3.13071e-13
-1.38106e-13
-2.92554e-13
-7.95067e-14
-7.57405e-15
8.25653e-16
3.14235e-15
2.11369e-15
-2.14334e-13
6.33134e-16
2.57436e-16
1.30587e-15
6.74919e-17
-3.41885e-17
-2.52068e-17
-1.39671e-18
-1.60792e-17
-4.73985e-18
2.67875e-06
1.55988e-05
5.19496e-31
1.55446e-31
2.59704e-30
-1.39035e-30
1.19304e-15
7.92622e-08
6.30573e-08
-1.40373e-10
-5.5111e-23
-1.35168e-22
-5.23404e-45
-4.88324e-44
-6.30854e-05
0.000101281
0.000159439
8.47778e-05
9.18213e-05
4.04935e-05
-4.94571e-29
-1.09353e-29
2.10538e-43
8.74852e-43
-2.13214e-27
-8.69348e-28
-2.97828e-05
-4.0867e-27
1.65657e-39
1.1697e-38
6.71848e-38
1.75735e-38
3.60653e-43
2.85432e-45
-0.000177986
2.43461e-40
5.0615e-40
-1.78952e-17
-8.01352e-10
1.78993e-41
-2.31468e-09
0.000265219
3.06743e-44
-2.89643e-07
-8.37945e-08
5.95388e-27
-8.6917e-37
-0.0123304
-0.0173887
0.00450206
-0.012459
-0.0203925
-0.0235074
2.20397e-31
2.00539e-31
1.06669
1.06762e-30
1.02081e-30
5.04981e-30
5.07746e-30
2.31558e-29
2.47868e-29
1.02239e-28
1.19952e-28
-2.95516e-16
-4.13725e-16
-7.31472e-16
2.1053e-15
7.84963e-15
2.47549e-14
9.98333e-15
3.17161e-14
5.55743e-14
-1.43757e-13
-5.2884e-13
-1.67704e-12
-4.0313e-12
-4.16572e-12
-6.64178e-12
2.28563e-11
7.74812e-11
2.16751e-10
5.01366e-10
-2.2763e-12
1.6484e-14
5.1047e-10
8.10012e-10
2.83412e-10
1.10453e-09
9.32835e-10
-6.95443e-09
-2.08569e-08
-8.1502e-10
4.4241e-28
5.71259e-28
1.86998e-27
2.67588e-27
7.78522e-27
1.22632e-26
3.24253e-26
-2.45761e-26
8.85964e-09
6.6572e-41
-6.06792e-39
-2.49697e-22
-2.02702e-47
5.7389e-48
4.72439e-39
2.53804e-39
-1.86961e-38
-2.21456e-38
1.2228e-41
-9.69111e-42
2.14374e-45
-9.84082e-40
-1.52561e-38
-1.18954e-37
-4.55805e-38
-7.6819e-39
-1.29474e-38
-4.76621e-08
-1.02636e-07
5.37617e-39
2.81893e-38
-1.75875e-34
1.41511e-39
-3.48471e-39
5.45116e-44
7.25705e-33
3.59566e-32
8.48171e-05
6.85969e-05
-6.04821e-11
-1.35967e-38
3.59391e-37
0.0684568
0.0493481
0.00878206
-1.36531e-15
-2.24086e-16
-3.38194e-24
1.55276e-24
8.93275e-05
-8.32312e-29
-6.56174e-14
-1.21406e-13
-3.6206e-13
-3.72627e-16
-6.49104e-16