/*--------------------------------*- C++ -*----------------------------------*\
  =========                 |
  \\      /  F ield         | OpenFOAM: The Open Source CFD Toolbox
   \\    /   O peration     | Website:  https://openfoam.org
    \\  /    A nd           | Version:  6
     \\/     M anipulation  |
\*---------------------------------------------------------------------------*/
FoamFile
{
    version     2.0;
    format      ascii;
    class       surfaceScalarField;
    location    "86400";
    object      phiw;
}
// * * * * * * * * * * * * * * * * * * * * * * * * * * * * * * * * * * * * * //

dimensions      [0 3 -1 0 0 0 0];

internalField   nonuniform List<scalar> 
35087
(
-1.52007e-08
2.97427e-08
-3.65713e-08
-3.65222e-08
-2.26112e-08
6.12688e-10
-3.17293e-08
1.53718e-08
1.34629e-08
2.8616e-08
2.23191e-08
2.8058e-09
1.27336e-08
-1.8292e-07
5.65059e-07
-1.99955e-09
5.38319e-08
-7.37033e-07
4.72537e-09
-1.85303e-07
2.55782e-07
-2.98705e-10
6.91991e-08
-8.29038e-07
3.89463e-08
-2.01489e-07
2.20518e-07
-1.69993e-08
-7.26205e-07
1.29747e-07
-6.69782e-09
1.82313e-07
-4.03188e-07
-6.19617e-09
-6.3085e-07
1.45155e-07
3.02603e-08
2.06991e-07
-7.77857e-07
1.15474e-08
-3.62873e-07
1.87101e-07
-2.22185e-08
1.8061e-07
-7.10728e-07
1.6467e-08
-5.21124e-07
2.1076e-07
-3.34227e-08
2.738e-07
-3.86972e-07
-1.95802e-09
1.10644e-07
-7.80914e-07
-1.05912e-09
-1.75062e-07
2.58077e-07
3.31797e-09
7.72643e-08
-8.14601e-07
3.59563e-08
-2.24659e-07
2.24949e-07
-1.62243e-08
-7.51456e-07
1.27754e-07
1.60213e-08
1.96215e-07
-4.86788e-07
-3.36371e-08
-3.80854e-07
2.7939e-07
1.06641e-09
1.0679e-07
-8.30638e-07
2.1868e-08
-2.16725e-07
2.36462e-07
-1.44826e-08
-7.23172e-07
1.65607e-07
7.48813e-09
2.41716e-07
-5.36751e-07
4.27418e-09
-4.67815e-07
1.97669e-07
1.53944e-08
-5.04776e-07
1.45531e-07
-3.32416e-08
2.97273e-07
-3.47661e-07
-4.02436e-09
1.27015e-07
-7.99355e-07
4.85633e-09
-1.92593e-07
2.59765e-07
-9.03506e-10
7.45607e-08
-8.11888e-07
3.83598e-08
-1.9103e-07
2.36715e-07
-1.49247e-08
1.25067e-07
-7.44506e-07
1.80969e-08
-5.01766e-07
1.84578e-07
-2.60324e-08
2.7636e-07
-3.83955e-07
-5.37579e-10
-7.53045e-07
1.0904e-07
3.32897e-08
2.77735e-07
-2.21729e-07
-1.85794e-08
-6.86535e-07
1.65581e-07
1.66617e-08
2.09176e-07
-5.07695e-07
-3.55872e-08
-3.75088e-07
2.7371e-07
7.87183e-10
1.04843e-07
-8.32224e-07
-4.61743e-09
-2.07525e-07
2.26495e-07
2.00655e-09
8.07112e-08
-8.1794e-07
3.34957e-08
-2.07983e-07
2.26082e-07
-1.34708e-08
1.41968e-07
-7.20956e-07
2.08177e-08
-5.08314e-07
1.93506e-07
-3.52853e-08
3.00317e-07
-3.38089e-07
-1.31819e-09
1.61684e-07
-7.5239e-07
3.69977e-08
-2.07267e-07
3.21973e-07
-1.67916e-08
1.90087e-07
-6.3683e-07
-3.70963e-09
-3.9441e-07
2.3782e-07
-3.57715e-11
2.3453e-07
-5.40914e-07
1.60594e-09
-4.12292e-07
1.59337e-07
4.4082e-09
1.92947e-07
-5.87627e-07
2.30132e-08
-5.28171e-07
1.38908e-07
-3.08475e-09
2.21269e-07
-4.82336e-07
-2.49729e-08
-7.05041e-07
1.99671e-07
-6.39419e-11
2.00623e-07
-4.70427e-07
-2.80032e-09
2.08664e-07
-5.48926e-07
2.1065e-09
-3.66132e-07
2.00895e-07
-2.93112e-09
1.84061e-07
-5.27933e-07
4.25288e-10
-5.14896e-07
2.06272e-07
4.03714e-09
1.94537e-07
-5.29622e-07
1.54521e-09
-4.68568e-07
2.02943e-07
5.74046e-10
1.62086e-07
-4.27285e-07
2.52155e-09
-5.56049e-07
2.24255e-07
2.00246e-08
1.70075e-07
-5.01289e-07
-8.18645e-09
-4.62737e-07
2.45219e-07
-1.91104e-08
2.03547e-07
-7.48426e-07
6.03727e-09
-5.33563e-07
2.56367e-07
3.18244e-09
2.05767e-07
-4.59786e-07
1.30345e-08
-4.88454e-07
1.48396e-07
-2.9946e-08
2.83482e-07
-3.87129e-07
-3.98963e-09
1.12444e-07
-7.85284e-07
3.88683e-09
-1.95966e-07
2.54994e-07
1.109e-11
6.49683e-08
-7.99558e-07
3.85315e-08
-1.82874e-07
2.28864e-07
-1.60053e-08
-7.21583e-07
1.31482e-07
-6.67485e-09
1.87552e-07
-3.98231e-07
-6.40245e-09
1.5102e-07
-6.28935e-07
2.81608e-08
-7.65444e-07
2.17635e-07
1.00749e-08
1.99918e-07
-3.55028e-07
-2.10108e-08
-7.08995e-07
1.76252e-07
-3.45092e-10
-4.2481e-07
2.09729e-07
-1.84269e-09
2.0853e-07
-5.87043e-07
1.9903e-08
-5.01266e-07
1.7111e-07
-5.46603e-09
2.81507e-07
-4.15592e-07
-2.57235e-08
-6.23889e-07
1.73675e-07
6.9989e-09
3.23715e-07
-6.4192e-07
8.37057e-09
-4.09451e-07
2.31967e-07
1.83808e-08
1.68251e-07
-4.79062e-07
-3.29891e-08
-4.00776e-07
2.8352e-07
-2.27318e-09
1.08398e-07
-7.87273e-07
-1.75563e-09
-1.92358e-07
2.492e-07
1.66988e-10
6.48199e-08
-8.33903e-07
3.99652e-08
-1.90741e-07
2.10453e-07
-1.32778e-08
-7.11807e-07
1.48706e-07
-7.91861e-09
1.81275e-07
-4.13717e-07
-2.4577e-08
-4.40899e-07
1.59776e-07
1.01256e-07
-6.42593e-07
2.65829e-08
7.83183e-08
-8.48292e-07
-1.72505e-08
2.11123e-07
-3.37755e-07
-2.34075e-10
1.77802e-07
-6.37458e-07
1.07647e-10
-5.35861e-07
1.81001e-07
9.81044e-10
-5.45022e-07
1.81198e-07
2.11128e-09
1.80125e-07
-5.44218e-07
2.57564e-09
-5.52252e-07
1.76727e-07
1.74483e-09
1.77789e-07
-5.55591e-07
1.04018e-09
-5.39926e-07
1.84359e-07
-8.05613e-10
1.89731e-07
-5.27087e-07
-2.76832e-09
-5.09953e-07
1.99932e-07
-2.5433e-09
2.00913e-07
-5.07626e-07
-1.64307e-09
-5.09728e-07
1.9559e-07
-6.18496e-10
-5.2927e-07
1.87886e-07
2.47858e-10
1.83271e-07
-5.35063e-07
-7.25112e-11
-5.46053e-07
1.77581e-07
-4.61941e-10
1.71674e-07
-5.53242e-07
1.73415e-10
-5.60443e-07
1.67374e-07
6.55436e-10
1.67473e-07
-5.61737e-07
1.03759e-09
1.70062e-07
-5.63512e-07
5.00819e-10
-5.54035e-07
1.80724e-07
-1.81514e-09
-5.31503e-07
1.89708e-07
-1.12416e-08
1.89308e-07
-4.87211e-07
4.2909e-08
-3.61312e-07
4.26269e-07
-4.11861e-08
-1.47548e-10
-6.04478e-07
1.00707e-07
9.15084e-09
1.14512e-07
-8.2508e-07
3.48961e-09
-5.13321e-07
1.42166e-07
3.72624e-09
1.59317e-07
-5.69625e-07
3.77197e-09
1.63619e-07
-5.99233e-07
6.68045e-09
-5.94985e-07
1.95161e-07
3.63467e-09
2.28377e-07
-6.25944e-07
-8.8404e-13
-6.40704e-07
2.57607e-07
1.81949e-12
2.57439e-07
-6.42297e-07
-9.36195e-13
-6.42655e-07
2.57584e-07
-5.18092e-09
2.56865e-07
-6.44221e-07
-4.55242e-09
-5.76529e-07
2.49939e-07
-2.17543e-09
2.19591e-07
-6.03051e-07
-2.02692e-09
-5.63886e-07
2.14751e-07
-9.90463e-10
1.99756e-07
-5.74201e-07
-9.7409e-10
-5.55207e-07
1.97016e-07
-6.79336e-10
1.89481e-07
-5.59357e-07
-8.78311e-10
-5.46417e-07
1.8727e-07
-4.96491e-10
1.84341e-07
-5.55779e-07
-6.85748e-10
-5.65444e-07
1.82158e-07
-8.981e-10
1.73407e-07
-5.60439e-07
4.12965e-10
-5.65034e-07
1.67848e-07
2.56648e-09
1.56168e-07
-6.0377e-07
9.51894e-09
1.69537e-07
-6.8917e-07
6.90046e-09
-6.79463e-07
2.20149e-07
-7.07072e-13
2.56815e-07
-6.29134e-07
-6.28163e-13
-6.42384e-07
2.57227e-07
1.30016e-12
2.56304e-07
-6.42451e-07
-6.09095e-13
-6.42238e-07
2.56402e-07
1.2511e-12
2.50925e-07
-6.28521e-07
-4.69608e-09
-6.30388e-07
2.50379e-07
-6.26019e-09
2.36781e-07
-5.53749e-07
-2.93964e-10
-5.50605e-07
1.99449e-07
1.63031e-09
-5.83855e-07
1.77947e-07
4.97879e-09
1.96174e-07
-5.88003e-07
4.52221e-09
-6.2956e-07
2.22348e-07
1.09937e-12
2.57488e-07
-6.38742e-07
1.02178e-12
-6.42209e-07
2.57421e-07
-5.18783e-13
2.57434e-07
-6.42347e-07
-4.59088e-13
-6.42434e-07
2.57477e-07
9.46597e-13
2.57685e-07
-6.42566e-07
-3.81966e-09
-6.43625e-07
2.55947e-07
-3.21608e-09
2.35923e-07
-5.75036e-07
2.99307e-09
-4.37747e-07
1.71206e-07
3.87678e-09
2.32397e-07
-6.52018e-07
-2.34726e-09
-6.39539e-07
2.55305e-07
-4.34953e-09
2.41129e-07
-5.94037e-07
-3.50432e-09
-5.45981e-07
2.15357e-07
-4.06633e-09
-5.23211e-07
1.94732e-07
-3.48139e-09
1.80936e-07
-5.29844e-07
-1.12689e-09
-5.41667e-07
1.77122e-07
1.13549e-09
1.78943e-07
-5.48907e-07
3.64625e-09
1.82687e-07
-5.47561e-07
3.65815e-09
-5.42684e-07
1.85365e-07
2.88086e-09
-5.27815e-07
1.85542e-07
1.9578e-09
1.86636e-07
-5.22043e-07
1.25684e-09
-5.05545e-07
1.88189e-07
1.39122e-09
1.91348e-07
-5.14174e-07
1.56328e-09
-5.14064e-07
1.94725e-07
9.33729e-10
1.86082e-07
-4.86556e-07
-8.06773e-10
1.90437e-07
-4.83934e-07
-1.42649e-09
-4.72591e-07
1.91104e-07
9.2713e-10
2.00169e-07
-5.04871e-07
1.52504e-09
-5.46842e-07
2.05961e-07
-1.45231e-09
2.18821e-07
-5.5224e-07
-4.05406e-09
-5.44572e-07
2.20898e-07
-4.61834e-09
2.08065e-07
-5.18636e-07
-4.1715e-09
-5.21533e-07
1.91179e-07
-3.87339e-09
1.79446e-07
-5.26424e-07
-1.70927e-09
-5.38027e-07
1.74805e-07
-1.85697e-10
1.75007e-07
-5.49061e-07
9.733e-10
1.75709e-07
-5.45441e-07
-3.21346e-11
-5.49725e-07
1.74454e-07
-1.24179e-08
1.46936e-07
-5.27886e-07
-3.302e-07
2.97368e-07
-2.74873e-08
2.43029e-07
-5.2684e-07
1.16779e-08
-8.88981e-08
6.14112e-07
-2.5976e-08
7.23705e-07
-2.92235e-07
2.53915e-08
-2.84267e-07
2.50725e-07
4.69616e-09
-1.41458e-07
7.68376e-07
-4.11708e-09
1.88236e-07
-2.85697e-07
4.17056e-10
-7.11332e-08
8.2385e-07
-3.9852e-08
2.12127e-07
-2.33311e-07
1.38622e-08
-1.3365e-07
7.05881e-07
6.67782e-09
3.93537e-07
-1.97513e-07
8.83984e-09
-1.46876e-07
6.66608e-07
-2.5482e-08
7.61388e-07
-2.20576e-07
4.45087e-09
-1.9602e-07
3.44375e-07
2.24564e-08
-1.29161e-07
7.32516e-07
-9.56324e-09
7.2423e-07
-2.62727e-07
-8.64496e-09
-1.95353e-07
4.07672e-07
-1.46653e-08
4.71562e-07
-1.7528e-07
2.66434e-08
-2.89111e-07
3.9714e-07
3.82359e-10
-9.3492e-08
8.44045e-07
-3.29066e-08
2.05157e-07
-2.41262e-07
1.34443e-08
-1.4476e-07
7.2106e-07
2.53878e-11
-1.86266e-07
4.08365e-07
-4.06079e-09
5.77916e-07
-2.20449e-07
1.09751e-09
-1.5153e-07
3.87695e-07
4.27415e-09
5.52786e-07
-1.75693e-07
-9.53644e-10
5.24122e-07
-2.04181e-07
-3.55097e-09
-1.94051e-07
4.79842e-07
-2.71602e-09
-2.06549e-07
4.72759e-07
3.36889e-09
4.12661e-07
-1.71092e-07
4.00016e-09
-1.93773e-07
5.24404e-07
1.79605e-09
5.03767e-07
-1.9083e-07
-3.47928e-09
-1.9727e-07
5.26194e-07
7.14721e-10
4.56324e-07
-2.07813e-07
2.94742e-10
-1.52502e-07
4.26143e-07
-1.81088e-09
5.5716e-07
-2.17991e-07
-1.72705e-08
-1.80113e-07
4.77897e-07
3.17933e-08
4.14002e-07
-2.65425e-07
-1.16823e-10
-9.62019e-08
8.4639e-07
-3.51902e-08
2.03068e-07
-2.43446e-07
1.68474e-08
-1.66271e-07
6.80479e-07
7.11267e-10
4.30508e-07
-2.03904e-07
-2.27949e-09
-2.16029e-07
5.661e-07
-2.35707e-08
4.97541e-07
-1.70633e-07
-1.41953e-09
-2.6439e-07
4.5712e-07
2.22738e-08
6.45313e-07
-2.34953e-07
4.25313e-09
-2.57465e-07
3.79132e-07
1.09694e-09
-2.60953e-07
5.28485e-07
1.01671e-10
3.94822e-07
-1.77921e-07
-4.10377e-09
-2.08914e-07
5.68429e-07
-2.35104e-08
5.05926e-07
-1.53628e-07
-4.10989e-10
-2.46105e-07
4.67669e-07
2.19902e-08
6.72003e-07
-2.18197e-07
3.27835e-09
-2.38175e-07
3.96615e-07
-6.3629e-10
5.41942e-07
-2.45703e-07
-1.59708e-08
-1.63204e-07
4.73976e-07
2.97103e-08
3.57507e-07
-2.76422e-07
-1.73555e-10
-1.12725e-07
8.11798e-07
-3.49878e-08
2.15594e-07
-2.73481e-07
1.87403e-08
6.58226e-07
-1.73448e-07
1.18537e-09
-2.13855e-07
4.43862e-07
7.12734e-14
5.97043e-07
-2.08414e-07
-1.62236e-08
-1.79004e-07
4.71885e-07
2.39568e-08
3.80341e-07
-2.94412e-07
-1.99979e-09
-1.00209e-07
8.34096e-07
-3.25213e-08
2.20393e-07
-2.425e-07
1.6908e-08
-1.51721e-07
7.30852e-07
7.36696e-09
3.72059e-07
-2.09388e-07
6.76178e-09
-2.01599e-07
5.227e-07
-2.18525e-08
6.2923e-07
-2.20624e-07
-1.00431e-08
-2.86211e-07
4.28128e-07
2.29133e-08
6.18758e-07
-2.24675e-07
1.6612e-08
-2.51888e-07
3.39483e-07
2.5777e-09
-1.95521e-07
5.94939e-07
-2.39631e-08
6.84418e-07
-2.72564e-07
2.2104e-08
-2.79107e-07
2.72458e-07
3.95348e-09
-1.20507e-07
7.65253e-07
1.01772e-09
1.60167e-07
-2.66111e-07
-5.31204e-09
-6.90593e-08
8.58805e-07
-3.03354e-08
2.74264e-07
-1.8643e-07
2.21977e-08
8.18209e-07
-7.55119e-08
-8.47611e-09
-2.19323e-07
8.57426e-07
1.24213e-08
2.35138e-07
-2.49268e-07
-1.24981e-09
-9.05652e-08
8.13964e-07
-2.96368e-08
2.00246e-07
-2.45627e-07
1.52418e-08
7.08048e-07
-1.57132e-07
-6.92634e-10
-1.99994e-07
4.28585e-07
-1.63086e-09
5.66994e-07
-2.16795e-07
-1.16395e-09
-1.64605e-07
3.68729e-07
1.33727e-10
4.84861e-07
-1.87561e-07
8.2192e-11
-1.9196e-07
4.79352e-07
1.54006e-10
4.86182e-07
-1.91453e-07
-2.47043e-10
-1.95178e-07
4.84469e-07
-7.3058e-10
4.80932e-07
-1.94024e-07
-4.98801e-10
-1.95246e-07
4.80048e-07
6.93309e-10
-1.96313e-07
4.66476e-07
1.46923e-09
4.71922e-07
-1.97774e-07
3.04037e-09
-1.99581e-07
4.71522e-07
2.39625e-08
3.76421e-07
-1.89647e-07
-1.06269e-07
6.81411e-07
-1.18518e-08
-4.27062e-08
7.90331e-07
2.35011e-09
1.09628e-07
-1.42056e-07
-1.52397e-09
-6.66108e-08
8.5804e-07
-1.95922e-09
1.81425e-07
-2.51004e-07
-3.45573e-08
-1.54249e-07
7.94396e-07
1.32819e-08
-2.73112e-07
3.52733e-07
2.15103e-09
5.32345e-07
-2.03196e-07
4.3029e-10
-1.91088e-07
4.92097e-07
6.11724e-11
4.86244e-07
-1.89214e-07
1.3099e-11
-1.89056e-07
4.84787e-07
6.97723e-13
4.84555e-07
-1.89155e-07
3.56015e-13
-1.89272e-07
4.84411e-07
2.06079e-13
4.84325e-07
-1.89375e-07
2.15746e-13
-1.89462e-07
4.84252e-07
2.2896e-13
-1.89538e-07
4.8419e-07
2.43172e-13
4.84137e-07
-1.89602e-07
2.35218e-13
-1.89658e-07
4.8409e-07
-5.13706e-13
-1.89708e-07
4.8405e-07
2.88962e-13
4.84014e-07
-1.89749e-07
3.00925e-13
-1.89788e-07
4.83985e-07
3.15343e-13
4.83982e-07
-1.89843e-07
3.01365e-13
-1.89882e-07
4.83947e-07
-6.82337e-13
-1.89885e-07
4.83904e-07
-6.77434e-13
4.83887e-07
-1.89905e-07
3.76394e-13
-1.89946e-07
4.83893e-07
3.54318e-13
-1.89973e-07
4.83869e-07
-7.98433e-13
4.83836e-07
-1.89965e-07
-7.88201e-13
-1.89977e-07
4.83826e-07
3.97898e-13
-1.90009e-07
4.83839e-07
-8.85498e-13
4.83823e-07
-1.9003e-07
-8.71269e-13
-1.90015e-07
4.83794e-07
4.38079e-13
4.8379e-07
-1.90019e-07
-9.72705e-13
-1.90048e-07
4.8381e-07
-9.54375e-13
4.83798e-07
-1.90062e-07
5.22302e-13
-1.90042e-07
4.83774e-07
4.86858e-13
4.83796e-07
-1.90064e-07
-1.04244e-12
-1.90077e-07
4.83786e-07
5.66093e-13
4.83764e-07
-1.90052e-07
5.26694e-13
-1.9005e-07
4.83766e-07
-1.12615e-12
4.83794e-07
-1.90072e-07
6.09907e-13
-1.90079e-07
4.83785e-07
5.66512e-13
4.8377e-07
-1.90054e-07
-1.20983e-12
-1.90072e-07
4.83797e-07
5.98857e-13
4.83792e-07
-1.90076e-07
-1.2657e-12
-1.9005e-07
4.83778e-07
6.25726e-13
4.83807e-07
-1.90063e-07
-1.32143e-12
-1.90068e-07
4.83805e-07
7.12341e-13
-1.90035e-07
4.83789e-07
7.20528e-13
4.83801e-07
-1.90026e-07
7.35008e-13
-1.9004e-07
4.83833e-07
7.49495e-13
4.83835e-07
-1.9004e-07
7.64088e-13
-1.90008e-07
4.83826e-07
7.12789e-13
4.8386e-07
-1.90018e-07
-1.51724e-12
-1.90018e-07
4.83863e-07
8.1502e-13
4.83855e-07
-1.89981e-07
7.52791e-13
-1.89988e-07
4.83892e-07
-1.60132e-12
4.83899e-07
-1.89986e-07
8.59107e-13
-1.89946e-07
4.83892e-07
8.65931e-13
-1.89951e-07
4.83933e-07
8.80478e-13
4.83942e-07
-1.89943e-07
8.19638e-13
-1.89903e-07
4.8394e-07
-1.74185e-12
4.83986e-07
-1.89907e-07
9.32687e-13
-1.89894e-07
4.83995e-07
9.39011e-13
4.84e-07
-1.89849e-07
9.53613e-13
-1.89847e-07
4.84046e-07
9.6823e-13
4.84063e-07
-1.89832e-07
9.00155e-13
-1.89784e-07
4.8407e-07
-1.91117e-12
4.84125e-07
-1.89779e-07
1.02151e-12
-1.89757e-07
4.84143e-07
9.40615e-13
4.84159e-07
-1.89703e-07
-1.99629e-12
-1.89693e-07
4.84219e-07
9.77224e-13
4.84247e-07
-1.89663e-07
-2.05337e-12
-1.89605e-07
4.84271e-07
1.09616e-12
-1.89582e-07
4.84335e-07
1.1011e-12
4.84376e-07
-1.89546e-07
1.11609e-12
4.84407e-07
-1.89474e-07
1.03594e-12
-1.89421e-07
4.84466e-07
-2.29347e-12
4.84557e-07
-1.89389e-07
-2.2154e-12
-1.89337e-07
4.84614e-07
1.08814e-12
-1.89244e-07
4.84668e-07
-2.28458e-12
4.84782e-07
-1.89192e-07
1.11634e-12
-1.89116e-07
4.84864e-07
-2.34394e-12
-1.89005e-07
4.84952e-07
1.14511e-12
4.85093e-07
-1.88918e-07
-2.50943e-12
-1.88816e-07
4.85222e-07
-2.53008e-12
4.85358e-07
-1.88661e-07
-2.45439e-12
-1.88531e-07
4.8556e-07
1.31357e-12
4.85764e-07
-1.88363e-07
1.19452e-12
-1.88138e-07
4.85998e-07
-2.71009e-12
4.86332e-07
-1.87922e-07
-2.85602e-12
-1.87645e-07
4.867e-07
5.14263e-13
4.87164e-07
-1.87267e-07
-4.40278e-12
-1.86855e-07
4.87829e-07
1.74914e-11
4.88651e-07
-1.86277e-07
1.44722e-10
-1.8541e-07
4.89775e-07
7.02612e-10
-1.84332e-07
4.90817e-07
2.97519e-09
4.89796e-07
-1.8174e-07
3.22771e-08
-1.52671e-07
4.83867e-07
2.7901e-07
-3.92201e-07
2.8921e-06
3.96287e-06
1.07069e-06
-2.89208e-06
-3.11236e-06
2.62625e-06
-3.4497e-06
-9.06005e-07
-2.05575e-06
2.05388e-06
-4.4789e-06
-5.47208e-07
2.51722e-06
-2.22489e-06
3.35354e-06
1.88056e-06
-2.90724e-06
6.5274e-07
-3.53758e-06
-1.78561e-06
3.16337e-06
-2.07646e-06
2.09685e-06
-8.01205e-07
-4.2192e-06
1.07009e-06
2.89191e-06
3.96207e-06
-2.892e-06
3.0749e-06
-2.45758e-06
3.41395e-06
8.91721e-07
2.72981e-06
-9.2357e-07
-3.60038e-06
-3.13589e-06
2.8922e-06
-2.89219e-06
1.07225e-06
3.96468e-06
2.3492e-06
-8.71241e-07
-2.33143e-06
-4.10477e-06
6.76028e-07
2.6431e-06
-3.48183e-06
5.14435e-06
-2.05829e-06
2.0568e-06
-5.41921e-07
-4.4804e-06
-3.4157e-06
9.67506e-07
4.74497e-06
2.64084e-06
2.01441e-06
-3.256e-06
-2.88333e-06
-1.59308e-06
2.89192e-06
-2.8919e-06
3.9623e-06
1.07052e-06
-2.84696e-06
-3.66098e-06
2.17036e-06
-7.2671e-07
3.7324e-06
3.37547e-06
6.6399e-07
-2.89568e-06
-1.73973e-06
2.69482e-06
-2.25376e-06
-3.91625e-06
3.4162e-07
-2.89222e-06
2.89235e-06
3.96762e-06
1.07488e-06
2.69771e-06
4.03963e-06
1.08357e-06
-2.77054e-06
-4.0349e-06
2.56248e-06
-5.7978e-07
-2.13163e-06
-2.89176e-06
1.07183e-06
2.89167e-06
3.96328e-06
-2.89551e-06
2.00867e-06
-3.44588e-06
-1.5429e-06
-3.00051e-06
-3.08049e-06
6.78643e-07
-1.99082e-06
2.8748e-06
2.16866e-06
-8.83366e-07
-4.22685e-06
-2.10044e-06
1.07867e-06
2.8926e-06
3.97197e-06
-2.89255e-06
-1.86917e-06
1.59997e-06
1.42943e-06
4.52802e-06
2.82519e-06
2.60972e-06
-2.55547e-06
-5.02555e-09
1.90995e-06
-2.16488e-06
2.10844e-06
-4.07193e-06
-8.2317e-07
-2.8914e-06
2.89158e-06
3.96546e-06
1.07452e-06
6.29537e-07
-2.03561e-06
-2.00031e-06
-4.62662e-06
3.78958e-06
2.89307e-06
3.97858e-06
1.08429e-06
-2.89286e-06
2.39805e-06
4.48604e-06
-1.44748e-06
-1.56665e-07
-1.79251e-06
2.22117e-06
-1.98227e-06
-3.92265e-06
-2.69494e-06
2.6071e-06
-9.86597e-07
-3.93097e-06
-1.9873e-06
-7.82812e-07
-4.244e-06
2.00782e-06
-2.04171e-06
1.31154e-06
1.6286e-06
4.24266e-06
-2.89094e-06
1.07862e-06
2.89106e-06
3.96861e-06
6.09604e-07
-2.93807e-06
-3.41975e-06
-1.85778e-06
3.24969e-06
2.55752e-06
-3.20244e-06
7.56273e-07
4.98008e-06
2.89596e-06
-1.07229e-06
-3.98158e-06
-2.86744e-06
2.89389e-06
-2.89373e-06
3.98845e-06
1.09224e-06
2.07085e-06
-3.19447e-06
-2.76381e-06
-1.74187e-06
3.73011e-06
-2.64307e-06
3.28316e-06
4.40203e-07
-2.88963e-06
2.89019e-06
3.9755e-06
1.08725e-06
-2.35412e-06
-4.15205e-06
-9.04429e-07
2.46325e-06
-2.27155e-06
-2.21035e-06
2.68989e-06
1.13455e-07
-3.45354e-06
1.07122e-06
3.96348e-06
-2.89213e-06
2.89204e-06
-3.40251e-06
2.29557e-06
-2.38491e-06
-2.03497e-06
1.11191e-06
2.6042e-06
-3.39222e-06
4.57455e-06
2.13403e-06
-2.14061e-06
-4.42694e-06
-5.99582e-07
1.87466e-06
-3.18803e-06
-3.3402e-06
-1.2896e-06
1.07027e-06
3.96233e-06
-2.89194e-06
2.89205e-06
2.89596e-06
-2.89516e-06
4.00383e-06
1.10373e-06
3.27175e-06
-1.14152e-06
-2.21446e-06
-4.84472e-06
-2.89225e-06
2.89216e-06
3.9659e-06
1.07335e-06
-2.90319e-06
1.0676e-06
3.89659e-06
2.90092e-06
-2.46716e-06
-4.24419e-06
-8.73972e-07
2.54826e-06
2.17204e-06
-3.71754e-06
2.06543e-06
4.22239e-06
-5.37632e-07
-2.05697e-06
2.05656e-06
-5.42256e-07
-4.47876e-06
-2.59521e-06
-4.58947e-06
-1.05641e-06
3.23946e-06
-8.08393e-07
-2.62173e-06
3.46398e-06
-5.08471e-06
-2.89195e-06
2.89184e-06
3.96201e-06
1.07015e-06
1.95887e-06
-4.25911e-06
-8.03336e-07
-1.91797e-06
5.5888e-07
2.84533e-06
-3.49685e-06
5.14069e-06
-2.03611e-06
2.09167e-06
-6.93043e-07
-4.35454e-06
-7.27219e-07
2.21496e-06
2.17624e-06
4.17454e-06
-3.50698e-06
2.18461e-06
-9.00904e-07
-4.26149e-06
-2.0856e-06
-3.26883e-06
-2.99263e-06
7.44131e-07
-1.89969e-06
2.92787e-06
1.01486e-06
3.92109e-06
2.88886e-06
-2.87472e-06
-2.90039e-06
1.12705e-06
4.04005e-06
2.90376e-06
3.07975e-06
2.98317e-06
-7.24799e-07
2.00007e-06
-2.88954e-06
-2.16618e-06
-7.91616e-07
-4.07161e-06
2.06721e-06
-2.41298e-06
2.82155e-06
3.9877e-06
1.32984e-06
-2.28542e-06
3.26075e-06
-1.15934e-06
-5.1477e-06
-2.91662e-06
1.05517e-06
3.44434e-06
3.38747e-06
-2.41857e-06
-3.92341e-06
2.2587e-06
-8.61477e-07
2.27467e-06
-8.7778e-07
-2.50602e-06
-3.58917e-06
2.46984e-06
1.33064e-06
-3.39142e-06
4.61755e-06
2.89185e-06
1.07114e-06
3.96276e-06
-2.89183e-06
-3.01605e-06
-3.00749e-06
6.95174e-07
-2.00734e-06
2.83467e-06
3.22937e-06
-1.09997e-06
-2.28776e-06
-5.04801e-06
-2.30607e-06
-4.25151e-06
2.14795e-06
-6.53585e-07
-2.31082e-06
-3.99329e-06
-8.32835e-07
2.17582e-06
-2.90871e-06
-3.46467e-06
2.06909e-06
-1.4023e-06
3.97484e-06
-2.89259e-06
2.89278e-06
1.08117e-06
3.09225e-06
-5.90249e-07
2.83015e-06
2.01947e-06
-3.18973e-06
5.28879e-07
2.86819e-06
-3.50911e-06
5.14562e-06
-2.89244e-06
1.07678e-06
3.96981e-06
2.89247e-06
-2.89155e-06
1.07295e-06
2.89158e-06
3.96417e-06
2.56963e-06
-2.51916e-06
-8.2838e-07
-4.26e-06
-2.05342e-06
-8.16802e-07
-4.17973e-06
2.03211e-06
-2.89642e-06
8.66687e-07
3.92843e-06
2.94529e-06
-1.03023e-06
3.31054e-06
-2.29048e-06
-5.26802e-06
1.1708e-06
2.92991e-06
4.13247e-06
-2.91877e-06
-1.78399e-06
1.64974e-06
1.63856e-06
4.39283e-06
2.16272e-06
-2.02646e-06
-4.02345e-06
-8.4565e-07
-5.10439e-07
2.94121e-06
3.33259e-06
-3.17752e-06
1.79771e-06
-3.22278e-06
-3.16283e-06
6.69221e-07
-1.95084e-06
2.96121e-06
2.22733e-06
-2.09526e-06
-8.43169e-07
-4.28447e-06
1.79624e-06
-2.28973e-06
1.99355e-06
4.01177e-06
-2.892e-06
1.07098e-06
3.96319e-06
2.89212e-06
-2.84297e-06
-3.32501e-06
2.55344e-06
-1.21463e-06
-7.20236e-07
-2.7603e-06
3.49789e-06
-4.99092e-06
-2.89215e-06
1.0716e-06
3.96393e-06
2.89216e-06
3.0087e-06
-2.59021e-06
3.37339e-06
1.01779e-06
-2.25339e-06
2.14146e-06
-4.12696e-06
-6.23566e-07
-2.49654e-06
2.67988e-06
-3.2901e-06
1.22626e-07
-1.89514e-06
3.96258e-06
2.89195e-06
-2.89194e-06
1.07049e-06
2.05642e-06
-2.05676e-06
-4.48013e-06
-5.43487e-07
2.80692e-06
-3.47385e-06
6.47424e-07
5.0726e-06
-6.66338e-07
2.17878e-06
4.34175e-06
2.07313e-06
-3.67245e-06
2.09654e-06
-2.13966e-06
-4.2969e-06
-7.68702e-07
-2.72217e-06
2.68595e-06
-9.98328e-07
-3.98236e-06
2.68179e-06
-9.80325e-07
-4.11594e-06
-2.6398e-06
2.56968e-06
-6.87225e-07
3.92327e-06
1.95149e-06
-3.44719e-06
2.05771e-06
-2.06144e-06
-4.48209e-06
-5.41473e-07
-2.89044e-06
2.89064e-06
3.97193e-06
1.08297e-06
-3.13986e-06
-3.51064e-06
1.93455e-06
-1.10546e-06
2.8273e-06
3.85454e-06
-2.67292e-06
9.75289e-07
2.27657e-06
-2.05576e-06
-4.45455e-06
-7.01491e-07
2.86161e-06
3.9446e-06
1.00773e-06
-2.86187e-06
-3.27973e-06
1.24209e-06
2.34533e-06
4.68532e-06
2.40833e-06
-9.10732e-07
-4.2773e-06
-2.32059e-06
2.88844e-06
-2.87771e-06
3.98746e-06
1.09405e-06
1.84632e-06
-2.57367e-06
-3.32427e-06
-8.1025e-07
-2.02244e-06
6.63387e-07
-1.8879e-06
-4.82203e-06
3.71487e-06
2.25515e-06
2.91135e-06
-2.30114e-06
9.46343e-08
1.95785e-06
2.89821e-06
-2.89693e-06
1.11291e-06
4.01731e-06
2.31222e-06
-2.40662e-06
-3.98063e-06
-8.82102e-07
1.93528e-06
-3.18751e-06
-3.2488e-06
-3.39418e-07
2.89473e-06
-2.89432e-06
1.09714e-06
3.99485e-06
2.89352e-06
-2.89324e-06
1.08854e-06
3.98378e-06
-2.89228e-06
1.07406e-06
2.89231e-06
3.96671e-06
-2.5895e-06
-4.00483e-06
-9.62774e-07
2.58435e-06
-2.89211e-06
2.89223e-06
1.07281e-06
3.96529e-06
-3.14443e-06
2.38593e-06
-3.39917e-06
-7.93497e-07
2.37674e-06
-3.10365e-06
1.12895e-06
4.61811e-06
2.163e-06
-2.61207e-06
2.67896e-06
-8.32104e-08
2.68784e-06
-1.31919e-06
-2.41291e-06
3.36612e-06
-4.51469e-06
2.05553e-06
-2.05631e-06
-4.47782e-06
-5.4357e-07
2.8923e-06
-2.89238e-06
1.07572e-06
3.96858e-06
2.66085e-06
-1.20764e-06
-3.83714e-06
-2.62706e-06
2.89131e-06
1.07584e-06
3.96645e-06
-2.89124e-06
-2.47074e-06
-8.89234e-07
3.31038e-06
-5.23472e-06
-2.01531e-06
6.29574e-07
-1.94197e-06
-4.77996e-06
3.93329e-06
-2.66356e-06
-2.74123e-06
2.49723e-06
-1.73463e-08
-1.91963e-06
1.07015e-06
2.89203e-06
3.96219e-06
-2.89202e-06
2.05039e-06
-3.84106e-06
-3.60785e-06
2.68372e-06
-2.18188e-06
3.33068e-06
1.72173e-06
2.89195e-06
-2.89183e-06
3.96217e-06
1.07035e-06
1.07019e-06
2.89199e-06
3.96211e-06
-2.89185e-06
2.14083e-06
-2.06083e-06
-4.48344e-06
-5.47329e-07
-1.91154e-06
2.62881e-06
3.30968e-06
1.49625e-06
2.03236e-06
-1.9637e-06
-7.93152e-07
-4.28748e-06
-2.30211e-06
-2.6629e-06
2.26865e-06
-1.0085e-07
-2.03595e-06
2.89176e-06
-2.89175e-06
1.0708e-06
3.96246e-06
-2.19287e-06
3.08861e-06
2.7753e-06
1.79836e-06
1.97037e-06
-4.17486e-06
-8.09886e-07
-2.00691e-06
2.06459e-06
-1.9616e-06
-5.3391e-07
-4.55599e-06
1.15375e-06
2.35588e-06
-3.28096e-06
4.73033e-06
2.51389e-06
3.05454e-06
-2.51799e-06
-4.4188e-08
1.86764e-06
-2.06797e-06
2.09643e-06
-7.65974e-07
-4.25955e-06
2.13748e-06
-2.96426e-06
-1.09291e-06
-2.84144e-06
2.94162e-06
4.08695e-06
2.88605e-07
-3.82951e-06
-2.65688e-06
-4.72038e-07
-4.1651e-06
3.2073e-06
-2.99405e-06
1.38294e-06
3.82421e-06
3.01175e-06
1.07078e-06
3.96297e-06
-2.89218e-06
1.07066e-06
2.8922e-06
3.96298e-06
3.96285e-06
1.07056e-06
-2.89213e-06
-3.96277e-06
-2.89227e-06
1.07052e-06
3.96295e-06
2.89232e-06
3.9628e-06
1.07043e-06
-3.9627e-06
-2.89224e-06
-2.89237e-06
1.07037e-06
2.89242e-06
3.9629e-06
3.96275e-06
1.07029e-06
-2.89233e-06
-3.96266e-06
-2.89246e-06
1.07023e-06
3.96283e-06
2.89252e-06
3.96269e-06
1.07016e-06
-3.96261e-06
-2.89241e-06
-2.89254e-06
1.07009e-06
2.89261e-06
3.96276e-06
3.96262e-06
1.07002e-06
-2.89246e-06
-3.96256e-06
-2.8926e-06
1.06994e-06
3.96268e-06
2.89268e-06
3.96254e-06
-3.96249e-06
-2.89251e-06
1.06989e-06
2.89273e-06
3.96259e-06
1.0698e-06
-2.89264e-06
1.06986e-06
3.96274e-06
2.89283e-06
-1.07001e-06
-2.89279e-06
1.0697e-06
2.89289e-06
3.96264e-06
3.96249e-06
1.06966e-06
-2.89268e-06
-3.96245e-06
-2.89282e-06
1.06956e-06
3.96252e-06
2.89293e-06
3.96238e-06
1.06953e-06
-2.89272e-06
-3.96235e-06
-2.89285e-06
1.06941e-06
3.9624e-06
2.89298e-06
3.96226e-06
1.0694e-06
-3.96224e-06
-2.89273e-06
-2.89287e-06
1.06926e-06
2.893e-06
3.96228e-06
3.96213e-06
1.06925e-06
-2.89274e-06
-3.96212e-06
-2.89288e-06
1.06911e-06
3.96214e-06
2.89301e-06
3.96199e-06
1.06912e-06
-3.962e-06
-2.89274e-06
-2.89287e-06
1.06896e-06
2.89303e-06
3.96199e-06
3.96185e-06
1.06897e-06
-2.89273e-06
-3.96185e-06
-2.89287e-06
1.06882e-06
3.96184e-06
2.89302e-06
3.96169e-06
-3.96171e-06
-2.89271e-06
1.06883e-06
2.89301e-06
3.96167e-06
1.06868e-06
-2.89285e-06
1.06866e-06
3.96183e-06
-1.06881e-06
2.89317e-06
2.89317e-06
3.96166e-06
1.0685e-06
-2.893e-06
1.06849e-06
3.96182e-06
2.89334e-06
-1.06865e-06
2.89332e-06
3.96164e-06
-2.89315e-06
1.06833e-06
1.06832e-06
3.96181e-06
-1.06848e-06
2.8935e-06
2.89349e-06
3.96162e-06
1.06815e-06
-2.89331e-06
1.06814e-06
3.96179e-06
-1.0683e-06
2.89368e-06
2.89366e-06
3.96161e-06
-2.89348e-06
1.06796e-06
1.06795e-06
3.96178e-06
2.89385e-06
-1.06812e-06
2.89384e-06
3.96158e-06
1.06777e-06
-2.89364e-06
1.06775e-06
3.96176e-06
-1.06793e-06
2.89403e-06
2.89402e-06
3.96156e-06
-2.89382e-06
1.06757e-06
1.06755e-06
3.96174e-06
2.89421e-06
-1.06773e-06
2.8942e-06
3.96154e-06
1.06737e-06
-2.89399e-06
1.06735e-06
3.96172e-06
-1.06753e-06
2.89441e-06
2.89438e-06
3.96152e-06
-2.89417e-06
1.06716e-06
1.06713e-06
3.9617e-06
2.89459e-06
-1.06732e-06
2.89457e-06
3.96148e-06
1.06695e-06
-2.89435e-06
1.06692e-06
-1.0671e-06
2.89478e-06
3.96167e-06
-2.89454e-06
1.06673e-06
3.96145e-06
2.89476e-06
3.96127e-06
1.06676e-06
-2.89432e-06
-3.9613e-06
2.89472e-06
3.96123e-06
-2.8945e-06
1.06655e-06
1.06651e-06
3.96141e-06
2.89494e-06
-1.06669e-06
2.8949e-06
3.96119e-06
1.06633e-06
-2.89468e-06
1.06629e-06
-1.06647e-06
2.89513e-06
3.96137e-06
-2.89486e-06
1.0661e-06
3.96114e-06
2.8951e-06
3.96096e-06
-2.89464e-06
1.06615e-06
-3.96101e-06
2.89504e-06
3.96092e-06
1.06593e-06
-2.89482e-06
1.06588e-06
3.96109e-06
-1.06606e-06
2.89527e-06
-2.89499e-06
1.0657e-06
3.96086e-06
2.89523e-06
3.96069e-06
-2.89476e-06
1.06575e-06
-3.96074e-06
2.89517e-06
3.96064e-06
1.06552e-06
-2.89494e-06
1.06546e-06
3.96081e-06
2.8954e-06
-1.06565e-06
-2.89511e-06
1.0653e-06
2.89534e-06
3.96058e-06
3.96041e-06
1.06536e-06
-3.96047e-06
-2.89489e-06
-2.89505e-06
1.06513e-06
3.96035e-06
2.89528e-06
3.96019e-06
1.06518e-06
-2.89483e-06
-3.96024e-06
2.89522e-06
3.96012e-06
-2.89499e-06
1.06497e-06
1.0649e-06
3.96029e-06
2.89545e-06
-1.06507e-06
2.89538e-06
3.96006e-06
1.06474e-06
-2.89516e-06
1.06467e-06
-1.06484e-06
2.89561e-06
3.96023e-06
-2.89532e-06
1.06452e-06
3.95999e-06
2.89555e-06
3.95984e-06
-3.9599e-06
1.06458e-06
-2.89509e-06
2.89548e-06
3.95977e-06
1.06436e-06
-2.89526e-06
1.06429e-06
-1.06445e-06
3.95992e-06
2.8957e-06
-2.89541e-06
1.06414e-06
3.9597e-06
2.89563e-06
3.95955e-06
1.06421e-06
-2.89519e-06
-3.95961e-06
2.89556e-06
3.95948e-06
1.064e-06
-2.89535e-06
1.06392e-06
3.95963e-06
-1.06407e-06
2.89578e-06
-2.89548e-06
1.06378e-06
3.9594e-06
2.8957e-06
3.95926e-06
-3.95933e-06
1.06385e-06
-2.89527e-06
2.89563e-06
3.95919e-06
1.06363e-06
-2.89542e-06
1.06356e-06
3.95933e-06
2.89584e-06
-1.0637e-06
-2.89555e-06
1.06342e-06
2.89577e-06
3.95912e-06
3.95898e-06
1.0635e-06
-2.89535e-06
-3.95905e-06
-2.89548e-06
1.06329e-06
3.9589e-06
2.89569e-06
3.95877e-06
-3.95884e-06
-2.89527e-06
1.06336e-06
2.89562e-06
3.95869e-06
1.06316e-06
-2.89541e-06
1.06308e-06
3.95882e-06
-1.06321e-06
2.89582e-06
-2.89554e-06
1.06295e-06
3.95862e-06
2.89575e-06
3.95849e-06
1.06303e-06
-2.89533e-06
-3.95857e-06
2.89566e-06
3.95842e-06
-2.89546e-06
1.06283e-06
1.06275e-06
3.95854e-06
2.89587e-06
-1.06288e-06
2.89578e-06
3.95834e-06
1.06264e-06
-2.89558e-06
1.06256e-06
-1.06267e-06
2.89598e-06
3.95845e-06
-2.89571e-06
1.06244e-06
3.95825e-06
2.89591e-06
3.95814e-06
-3.95822e-06
1.06252e-06
-2.89551e-06
2.89581e-06
3.95806e-06
1.06233e-06
-2.89562e-06
1.06225e-06
-1.06236e-06
2.89601e-06
3.95817e-06
-2.89574e-06
1.06214e-06
3.95797e-06
2.89593e-06
3.95787e-06
1.06222e-06
-2.89554e-06
-3.95796e-06
2.89584e-06
3.95779e-06
1.06204e-06
-2.89566e-06
1.06195e-06
3.95789e-06
-1.06205e-06
2.89602e-06
-2.89575e-06
1.06185e-06
3.9577e-06
2.89594e-06
3.95761e-06
1.06194e-06
-2.89557e-06
-3.95769e-06
-2.89567e-06
2.89585e-06
3.95752e-06
1.06176e-06
-3.95751e-06
-2.89549e-06
1.06184e-06
3.95743e-06
1.06167e-06
3.95761e-06
2.89603e-06
-1.06177e-06
2.89595e-06
3.95743e-06
1.06158e-06
-2.89577e-06
1.0615e-06
3.95752e-06
-1.06158e-06
2.89612e-06
2.89603e-06
3.95734e-06
1.06141e-06
-2.89586e-06
1.06132e-06
3.95743e-06
2.89621e-06
-1.0614e-06
2.89612e-06
3.95725e-06
-2.89594e-06
1.06124e-06
1.06114e-06
3.95733e-06
-1.06122e-06
2.89629e-06
2.89619e-06
3.95716e-06
1.06106e-06
-2.89602e-06
1.06096e-06
3.95723e-06
2.89637e-06
-1.06104e-06
2.89626e-06
3.95706e-06
-2.89609e-06
1.0609e-06
1.0608e-06
3.95712e-06
-1.06087e-06
2.89643e-06
-3.96151e-06
3.96148e-06
-2.89297e-06
1.06836e-06
2.89633e-06
3.95695e-06
1.06073e-06
-2.89616e-06
1.06062e-06
3.95702e-06