/*--------------------------------*- C++ -*----------------------------------*\
  =========                 |
  \\      /  F ield         | OpenFOAM: The Open Source CFD Toolbox
   \\    /   O peration     | Website:  https://openfoam.org
    \\  /    A nd           | Version:  6
     \\/     M anipulation  |
\*---------------------------------------------------------------------------*/
FoamFile
{
    version     2.0;
    format      ascii;
    class       volVectorField;
    location    "86400";
    object      Uw;
}
// * * * * * * * * * * * * * * * * * * * * * * * * * * * * * * * * * * * * * //

dimensions      [0 1 -1 0 0 0 0];

internalField   nonuniform List<vector> 
11830
(
(-4.74381e-09 -1.39679e-09 -2.79536e-32)
(3.57316e-09 1.67251e-09 3.13765e-26)
(-3.36074e-09 -3.11976e-09 1.32058e-33)
(2.90158e-09 2.04123e-09 0)
(-3.70764e-08 -1.77037e-08 1.21035e-25)
(-5.60797e-08 2.45877e-08 5.18146e-26)
(-2.92193e-08 -7.24762e-10 -2.90513e-25)
(-6.09582e-08 2.873e-08 4.14527e-26)
(-2.19709e-08 2.2726e-09 1.30053e-25)
(-4.23953e-08 2.65186e-08 9.22665e-26)
(-3.72807e-08 1.02545e-08 -3.42093e-25)
(-4.99304e-08 2.10993e-08 0)
(-5.72278e-08 2.83091e-08 -2.64488e-25)
(-2.37167e-08 1.07965e-08 -5.06361e-31)
(-4.56089e-08 2.27622e-08 2.60377e-31)
(-4.20369e-08 1.38484e-08 2.64316e-31)
(-3.85805e-08 5.97372e-09 -6.00657e-28)
(-6.49427e-08 2.2619e-08 6.57889e-31)
(-2.90892e-08 -1.27954e-09 -1.02927e-25)
(-5.89885e-08 2.85005e-08 0)
(-2.23985e-08 3.39156e-09 1.38855e-25)
(-4.20892e-08 2.76648e-08 -4.84142e-25)
(-3.94646e-08 1.34882e-08 0)
(-3.84249e-08 5.50537e-09 0)
(-6.57621e-08 2.56395e-08 -8.88785e-26)
(-2.6122e-08 2.02887e-09 -4.88481e-26)
(-4.91429e-08 2.37108e-08 -4.24002e-25)
(-4.83146e-08 1.37754e-08 -4.90922e-25)
(-3.68846e-08 1.3407e-08 0)
(-3.4475e-08 1.64882e-08 5.9828e-31)
(-3.70482e-08 3.26269e-09 2.00823e-31)
(-6.60223e-08 2.23485e-08 -4.12673e-31)
(-2.97967e-08 -5.09441e-10 6.61446e-26)
(-5.88773e-08 2.81048e-08 -5.22197e-25)
(-2.20613e-08 1.07875e-09 -9.11352e-32)
(-4.15713e-08 2.77609e-08 -4.78634e-25)
(-3.94227e-08 1.48459e-08 -4.26892e-25)
(-3.68906e-08 6.35522e-09 1.90321e-25)
(-5.69618e-08 2.34441e-08 -5.2707e-25)
(-2.55058e-08 3.9055e-10 0)
(-4.22716e-08 2.27103e-08 4.92323e-25)
(-4.10379e-08 1.34382e-08 0)
(-3.80601e-08 5.42567e-09 1.91693e-25)
(-6.65272e-08 2.55782e-08 5.96203e-25)
(-2.92487e-08 1.7153e-09 -4.67389e-31)
(-6.08164e-08 2.81083e-08 -5.41973e-26)
(-2.27971e-08 2.36326e-09 1.2889e-25)
(-4.23804e-08 2.58144e-08 -4.69541e-31)
(-3.96795e-08 1.46132e-08 2.67642e-31)
(-3.63558e-08 2.57562e-09 -3.69328e-31)
(-6.41637e-08 1.88442e-08 6.94692e-25)
(-2.77381e-08 -2.39139e-09 0)
(-4.22172e-08 1.91375e-08 0)
(-3.81536e-08 6.5305e-09 3.85912e-25)
(-4.49911e-08 1.38471e-08 2.55035e-25)
(-3.20159e-08 1.20249e-08 0)
(-4.08222e-08 1.93441e-08 0)
(-2.98439e-08 1.9333e-08 -4.1887e-25)
(-3.13685e-08 1.42449e-08 1.67948e-25)
(-4.83623e-08 2.10093e-08 5.44767e-31)
(-4.19997e-08 1.15818e-08 -4.08554e-25)
(-4.71879e-08 1.52742e-08 4.68141e-25)
(-3.4327e-08 7.79821e-09 1.91632e-25)
(-4.3036e-08 1.53596e-08 6.48719e-25)
(-4.45609e-08 1.41814e-08 2.08138e-25)
(-4.34807e-08 1.56098e-08 -3.36582e-31)
(-3.90691e-08 1.27744e-08 2.0391e-25)
(-3.38353e-08 1.2278e-08 3.71004e-25)
(-4.37e-08 1.59298e-08 -3.39907e-31)
(-3.30186e-08 1.61338e-08 -2.54106e-31)
(-3.42466e-08 1.17418e-08 -2.18992e-31)
(-5.38e-08 2.19009e-08 -3.36311e-32)
(-4.90865e-08 1.26127e-08 -2.59409e-25)
(-3.72833e-08 1.24649e-08 0)
(-3.42125e-08 1.55746e-08 5.83911e-31)
(-3.89717e-08 5.5934e-09 2.05253e-25)
(-6.50685e-08 2.28322e-08 -2.10209e-31)
(-3.04824e-08 -1.54838e-10 1.76546e-25)
(-5.91684e-08 2.78098e-08 5.44943e-25)
(-2.15247e-08 1.05598e-09 -1.98433e-25)
(-4.19677e-08 2.62055e-08 9.39778e-26)
(-3.70546e-08 9.84928e-09 -3.39649e-25)
(-5.02711e-08 2.05569e-08 1.69106e-25)
(-5.84809e-08 2.70274e-08 -6.73218e-25)
(-2.47488e-08 9.82184e-09 1.9598e-31)
(-4.62227e-08 2.25391e-08 -1.14559e-25)
(-3.88981e-08 9.71557e-09 7.85767e-31)
(-4.67398e-08 1.72937e-08 -3.51399e-31)
(-3.71267e-08 1.55076e-08 -9.13453e-31)
(-3.56205e-08 8.03294e-09 -1.61167e-26)
(-4.93032e-08 1.64322e-08 0)
(-6.77762e-08 1.28845e-08 6.2735e-25)
(-3.8993e-08 9.2643e-09 -3.43154e-31)
(-3.47153e-08 1.45108e-08 -2.91076e-31)
(-3.97617e-08 6.11763e-09 0)
(-6.55167e-08 2.3083e-08 5.5896e-25)
(-3.03584e-08 -1.28129e-10 -2.58271e-31)
(-6.47407e-08 2.80579e-08 -7.14277e-31)
(-2.16364e-08 2.31179e-09 2.99645e-25)
(-4.21909e-08 2.56425e-08 6.01323e-25)
(-3.66427e-08 1.05908e-08 -3.47595e-25)
(-4.02764e-08 1.22558e-08 -8.4361e-31)
(-3.7237e-08 2.65104e-08 -1.3032e-25)
(3.59179e-08 -4.06096e-08 0)
(8.21112e-09 -3.28157e-08 0)
(2.2132e-08 -5.21821e-08 -2.32004e-31)
(1.64011e-08 -5.10539e-08 1.42661e-25)
(1.64032e-08 -5.25906e-08 0)
(1.62665e-08 -5.22101e-08 3.06562e-25)
(1.66489e-08 -5.12422e-08 0)
(1.68719e-08 -4.94496e-08 -4.49325e-25)
(1.62045e-08 -4.73805e-08 4.51866e-25)
(1.53745e-08 -4.61547e-08 -1.91778e-31)
(1.44734e-08 -4.58414e-08 1.9877e-31)
(1.43071e-08 -4.72664e-08 2.06225e-31)
(1.45602e-08 -4.90049e-08 4.44779e-25)
(1.5524e-08 -5.13019e-08 1.41294e-25)
(1.58906e-08 -5.20213e-08 -4.66858e-31)
(1.65914e-08 -5.22834e-08 -2.33257e-31)
(1.73529e-08 -5.19927e-08 4.46488e-25)
(1.78539e-08 -5.21444e-08 2.33915e-31)
(1.7874e-08 -5.21547e-08 1.25595e-25)
(1.76958e-08 -5.20406e-08 0)
(1.68041e-08 -5.14854e-08 6.11152e-25)
(1.54132e-08 -5.01038e-08 0)
(1.33306e-08 -4.65069e-08 -4.56888e-31)
(-4.84128e-09 -5.83687e-08 -4.20397e-31)
(2.0583e-08 -4.93033e-08 1.08611e-31)
(3.51734e-08 -5.16315e-08 0)
(1.69589e-08 -4.76252e-08 -2.09466e-31)
(1.85349e-08 -5.12471e-08 3.1398e-25)
(1.9392e-08 -5.11979e-08 -2.11867e-31)
(1.79864e-08 -5.06606e-08 -2.05805e-25)
(1.7693e-08 -5.20328e-08 7.61705e-25)
(1.77831e-08 -5.22941e-08 0)
(1.78649e-08 -5.19568e-08 -3.97165e-31)
(1.78748e-08 -5.19859e-08 5.59971e-25)
(1.79809e-08 -5.14362e-08 2.03456e-31)
(1.61927e-08 -4.90259e-08 -2.42508e-25)
(1.7628e-08 -5.16551e-08 0)
(1.65772e-08 -5.03789e-08 -4.9542e-25)
(1.71184e-08 -5.14963e-08 2.20371e-31)
(1.66408e-08 -5.07808e-08 3.03125e-25)
(1.6866e-08 -5.12496e-08 0)
(1.65599e-08 -5.06627e-08 2.22427e-31)
(1.69816e-08 -5.17556e-08 -4.60856e-25)
(1.75432e-08 -5.26477e-08 1.41648e-25)
(1.77656e-08 -5.20117e-08 4.55776e-25)
(1.82508e-08 -5.25357e-08 -1.19233e-25)
(2.0321e-08 -5.44148e-08 1.04604e-25)
(2.24084e-08 -5.8929e-08 0)
(2.00695e-08 -5.61865e-08 0)
(1.72829e-08 -5.19574e-08 0)
(1.78788e-08 -5.19493e-08 2.73096e-25)
(1.79247e-08 -5.19001e-08 -1.98369e-31)
(1.79103e-08 -5.18935e-08 -1.98344e-31)
(1.75278e-08 -5.07851e-08 -1.94107e-31)
(1.76398e-08 -5.0319e-08 0)
(1.56584e-08 -4.65476e-08 -2.31624e-25)
(1.66808e-08 -4.76908e-08 0)
(1.83139e-08 -4.93165e-08 -1.72942e-25)
(1.79076e-08 -4.97645e-08 -2.02403e-25)
(1.80284e-08 -5.19911e-08 2.42796e-25)
(1.76976e-08 -5.22766e-08 1.99806e-31)
(1.78617e-08 -5.19508e-08 3.97121e-31)
(1.78675e-08 -5.19593e-08 9.92957e-32)
(1.78695e-08 -5.19667e-08 -3.8935e-38)
(1.7866e-08 -5.19865e-08 -5.59905e-25)
(1.79958e-08 -5.15062e-08 1.0096e-31)
(1.63847e-08 -4.76535e-08 9.58893e-32)
(1.23518e-08 -3.78566e-08 0)
(1.84601e-08 -5.39235e-08 0)
(1.78359e-08 -5.18509e-08 0)
(1.68363e-08 -4.85501e-08 -2.48211e-25)
(1.56903e-08 -4.60259e-08 0)
(1.55731e-08 -4.52294e-08 -2.72785e-25)
(1.65166e-08 -4.66309e-08 1.60989e-25)
(1.69927e-08 -4.941e-08 -1.12163e-31)
(1.68288e-08 -5.17153e-08 -1.41507e-25)
(1.61537e-08 -5.20354e-08 1.48656e-25)
(1.56616e-08 -5.021e-08 1.61721e-25)
(1.5261e-08 -4.69558e-08 -1.74299e-25)
(1.51145e-08 -4.47886e-08 -1.8612e-25)
(1.45293e-08 -4.26533e-08 -4.31382e-25)
(1.47988e-08 -4.27199e-08 -1.98643e-25)
(1.4654e-08 -4.23562e-08 2.04346e-25)
(1.37927e-08 -3.95581e-08 1.98019e-25)
(1.36083e-08 -3.90456e-08 3.7634e-32)
(1.31976e-08 -3.84503e-08 3.72523e-32)
(1.4214e-08 -4.16256e-08 0)
(1.5517e-08 -4.43796e-08 2.207e-25)
(1.54771e-08 -4.45345e-08 4.80925e-25)
(1.52825e-08 -4.41863e-08 2.30615e-25)
(1.4901e-08 -4.32893e-08 -2.07737e-25)
(1.56953e-08 -4.44887e-08 2.37309e-32)
(1.64763e-08 -4.61259e-08 2.54578e-32)
(1.70261e-08 -4.90387e-08 4.54869e-25)
(1.71164e-08 -5.17982e-08 -4.54872e-25)
(1.66887e-08 -5.2401e-08 0)
(1.67591e-08 -5.22177e-08 -3.17648e-25)
(1.71258e-08 -4.67162e-08 0)
(-5.06393e-11 -4.6906e-08 -2.80208e-25)
(-4.01455e-08 -1.31131e-08 0)
(-4.3859e-08 2.15719e-08 0)
(-6.8756e-08 1.99093e-08 -1.37284e-33)
(-3.08835e-08 2.16414e-10 -6.03304e-34)
(-6.50072e-08 2.01287e-08 0)
(-3.14864e-08 -1.92826e-09 0)
(-6.09905e-08 2.83291e-08 4.18764e-26)
(-2.34153e-08 2.40243e-09 2.06695e-25)
(-4.05627e-08 2.57568e-08 0)
(-3.55966e-08 9.49709e-09 0)
(-5.06913e-08 2.21197e-08 -5.74904e-25)
(-5.91649e-08 2.63771e-08 2.60355e-25)
(-2.68422e-08 9.19149e-09 5.22756e-34)
(-5.25832e-08 2.327e-08 0)
(-7.14407e-08 2.04855e-08 0)
(-3.69187e-08 1.12583e-08 0)
(-3.53885e-08 1.40522e-08 0)
(-3.88773e-08 6.01172e-09 -8.72717e-34)
(-6.47179e-08 2.70654e-08 -1.85987e-33)
(-2.39527e-08 1.54265e-09 0)
(-4.2727e-08 2.56294e-08 1.04474e-25)
(-3.58025e-08 1.03461e-08 4.65374e-34)
(-4.43832e-08 1.70455e-08 -2.51672e-25)
(-2.93357e-08 1.13013e-08 -8.46173e-34)
(-4.17134e-08 1.71363e-08 2.0063e-25)
(-4.30057e-08 1.47898e-08 2.15837e-25)
(-3.87801e-08 1.34558e-08 -2.18455e-25)
(-3.75822e-08 1.27993e-08 5.69983e-34)
(-3.22996e-08 1.11975e-08 0)
(-4.1588e-08 1.4886e-08 5.9259e-34)
(-4.16099e-08 1.42323e-08 6.08144e-34)
(-4.29368e-08 1.52197e-08 1.35232e-33)
(-3.85303e-08 1.19149e-08 2.33898e-33)
(-3.37316e-08 1.23858e-08 1.00542e-33)
(-4.51359e-08 1.59697e-08 2.28263e-25)
(-3.47352e-08 1.42481e-08 5.25181e-34)
(-3.81531e-08 7.72205e-09 2.13693e-25)
(-6.54288e-08 2.67854e-08 -5.54864e-25)
(-2.37099e-08 1.28844e-09 -1.95242e-25)
(-4.22567e-08 2.28152e-08 0)
(-3.81017e-08 1.01466e-08 2.11321e-25)
(-4.42147e-08 1.65441e-08 4.97756e-25)
(-3.30478e-08 1.59239e-08 -4.98062e-34)
(-3.34358e-08 1.07865e-08 -2.4242e-25)
(-4.7338e-08 1.62673e-08 -6.39861e-25)
(-3.8617e-08 4.52753e-09 1.9537e-25)
(-4.63189e-08 1.16346e-08 7.88709e-25)
(-3.32251e-08 9.90923e-09 -3.6572e-25)
(-4.29661e-08 1.71916e-08 -5.01251e-25)
(-3.14224e-08 1.73293e-08 -6.62312e-34)
(-3.25183e-08 1.23037e-08 -2.40514e-25)
(-4.74832e-08 1.85023e-08 -1.25113e-25)
(-3.86476e-08 6.51573e-09 -2.22448e-25)
(-4.54388e-08 1.34119e-08 5.13681e-25)
(-3.47056e-08 1.43023e-08 0)
(-3.60837e-08 4.72062e-09 0)
(-6.35192e-08 2.46187e-08 5.08951e-34)
(-2.58105e-08 5.02265e-10 -1.44486e-25)
(-4.1808e-08 2.12486e-08 3.33029e-33)
(-3.95046e-08 1.01381e-08 -2.24411e-25)
(-4.72053e-08 1.77659e-08 -7.10505e-34)
(-3.61652e-08 1.37786e-08 4.23309e-25)
(-3.65909e-08 5.47925e-09 -1.97629e-25)
(-5.74301e-08 2.81341e-08 1.58365e-33)
(-2.23908e-08 1.99778e-09 -2.08734e-25)
(-4.21126e-08 2.54242e-08 4.87762e-25)
(-3.55899e-08 7.22053e-09 -1.90168e-25)
(-4.47622e-08 1.37076e-08 4.5558e-25)
(-4.96928e-08 1.89477e-08 -5.77601e-25)
(-3.49653e-08 8.87991e-09 -4.44628e-34)
(-4.62454e-08 1.56139e-08 -1.29309e-33)
(-3.8986e-08 2.31591e-09 9.80286e-34)
(-5.70029e-08 1.52252e-08 1.70277e-33)
(-6.4726e-08 1.96845e-08 0)
(-3.20981e-08 1.40112e-09 0)
(-6.33098e-08 2.17102e-08 0)
(-2.89904e-08 -2.43954e-09 0)
(-5.83871e-08 3.18817e-08 6.23465e-26)
(-2.15488e-08 7.84835e-09 0)
(-4.29959e-08 3.21879e-08 4.55478e-25)
(-7.49718e-08 2.65998e-08 -6.65812e-34)
(-3.06086e-08 1.64371e-09 -2.71712e-34)
(-6.19289e-08 2.66117e-08 0)
(-2.43791e-08 1.03172e-09 0)
(-4.47847e-08 2.39823e-08 0)
(-3.90279e-08 1.04206e-08 0)
(-4.62315e-08 1.62579e-08 -4.96115e-25)
(-3.08531e-08 9.63217e-09 4.9688e-25)
(-3.87204e-08 1.37935e-08 -4.22003e-25)
(-3.88642e-08 1.33257e-08 2.03728e-25)
(-3.93447e-08 1.36568e-08 4.22017e-25)
(-3.94347e-08 1.34278e-08 6.29182e-25)
(-3.89427e-08 1.3346e-08 -2.05546e-25)
(-3.88614e-08 1.32291e-08 1.16489e-33)
(-3.83255e-08 1.24866e-08 -5.655e-34)
(-3.91016e-08 1.25509e-08 -5.79163e-34)
(-3.97734e-08 1.24214e-08 0)
(-3.61889e-08 8.69523e-09 1.3048e-25)
(-3.827e-08 2.75286e-08 1.48999e-25)
(3.51092e-08 -3.24877e-08 5.01893e-25)
(6.47108e-10 -1.76029e-08 -1.63357e-25)
(3.12082e-08 -6.08845e-08 -5.73387e-25)
(-5.37619e-10 -2.98366e-08 -1.65455e-25)
(2.04568e-08 -7.0187e-08 1.01248e-25)
(3.90427e-09 -3.70533e-08 1.8299e-32)
(1.52502e-08 -4.08057e-08 2.14709e-25)
(1.39696e-08 -3.91713e-08 0)
(1.37872e-08 -3.89512e-08 0)
(1.37276e-08 -3.89041e-08 -4.22002e-25)
(1.37123e-08 -3.89029e-08 -3.71769e-32)
(1.37002e-08 -3.89028e-08 -3.71728e-32)
(1.36915e-08 -3.89038e-08 -7.43475e-32)
(1.3684e-08 -3.89047e-08 -3.71746e-32)
(1.36776e-08 -3.89054e-08 4.21483e-25)
(1.36721e-08 -3.89061e-08 2.19179e-25)
(1.36674e-08 -3.89066e-08 0)
(1.36632e-08 -3.89072e-08 0)
(1.36596e-08 -3.89076e-08 0)
(1.36565e-08 -3.8908e-08 -3.71778e-32)
(1.36538e-08 -3.8911e-08 -1.11542e-31)
(1.36503e-08 -3.89113e-08 -7.43619e-32)
(1.36482e-08 -3.89091e-08 0)
(1.36465e-08 -3.89094e-08 2.02494e-25)
(1.36449e-08 -3.8912e-08 2.02529e-25)
(1.36425e-08 -3.8912e-08 0)
(1.36413e-08 -3.89098e-08 1.48716e-31)
(1.36403e-08 -3.891e-08 1.48717e-31)
(1.36394e-08 -3.89125e-08 0)
(1.36377e-08 -3.89128e-08 0)
(1.36371e-08 -3.89103e-08 0)
(1.36367e-08 -3.89102e-08 0)
(1.36363e-08 -3.8913e-08 1.48729e-31)
(1.3635e-08 -3.89133e-08 1.4873e-31)
(1.36349e-08 -3.89106e-08 7.43608e-32)
(1.36349e-08 -3.89131e-08 2.39204e-38)
(1.36338e-08 -3.89134e-08 -7.43659e-32)
(1.3634e-08 -3.89106e-08 0)
(1.36342e-08 -3.89105e-08 0)
(1.36344e-08 -3.89136e-08 1.48731e-31)
(1.36337e-08 -3.89134e-08 2.97463e-31)
(1.36342e-08 -3.89109e-08 4.21179e-25)
(1.36345e-08 -3.89137e-08 2.02626e-25)
(1.36342e-08 -3.89137e-08 -4.46195e-31)
(1.36347e-08 -3.89114e-08 -2.02606e-25)
(1.36355e-08 -3.89138e-08 -1.48734e-31)
(1.36351e-08 -3.89139e-08 -1.48734e-31)
(1.36359e-08 -3.89111e-08 -2.02594e-25)
(1.36369e-08 -3.8911e-08 0)
(1.36377e-08 -3.89137e-08 0)
(1.36378e-08 -3.89138e-08 0)
(1.36389e-08 -3.89114e-08 -4.21221e-25)
(1.364e-08 -3.8914e-08 0)
(1.36401e-08 -3.89144e-08 0)
(1.36415e-08 -3.89118e-08 1.48726e-31)
(1.36429e-08 -3.89141e-08 1.48735e-31)
(1.36433e-08 -3.89147e-08 0)
(1.36448e-08 -3.89119e-08 4.21271e-25)
(1.36465e-08 -3.89143e-08 -1.48736e-31)
(1.36473e-08 -3.89144e-08 0)
(1.36491e-08 -3.8912e-08 0)
(1.3651e-08 -3.89151e-08 2.97471e-31)
(1.3652e-08 -3.89149e-08 2.9747e-31)
(1.36543e-08 -3.89123e-08 0)
(1.36566e-08 -3.89148e-08 0)
(1.36581e-08 -3.8915e-08 0)
(1.36606e-08 -3.89126e-08 -4.21405e-25)
(1.36633e-08 -3.89158e-08 0)
(1.36652e-08 -3.89155e-08 0)
(1.36685e-08 -3.89131e-08 0)
(1.36717e-08 -3.89162e-08 4.2152e-25)
(1.36744e-08 -3.89161e-08 2.02325e-25)
(1.36782e-08 -3.89141e-08 0)
(1.36823e-08 -3.89165e-08 0)
(1.36859e-08 -3.89165e-08 0)
(1.36906e-08 -3.89141e-08 2.02184e-25)
(1.36959e-08 -3.89145e-08 1.48737e-31)
(1.37015e-08 -3.89182e-08 0)
(1.37066e-08 -3.89189e-08 4.21818e-25)
(1.37135e-08 -3.89163e-08 -2.02013e-25)
(1.37211e-08 -3.89198e-08 6.23924e-25)
(1.37285e-08 -3.89202e-08 0)
(1.37377e-08 -3.89188e-08 0)
(1.37483e-08 -3.8922e-08 0)
(1.3759e-08 -3.89235e-08 0)
(1.37725e-08 -3.89228e-08 0)
(1.37879e-08 -3.8927e-08 6.24032e-25)
(1.38052e-08 -3.89287e-08 -6.24069e-25)
(1.38265e-08 -3.89288e-08 -2.01212e-25)
(1.3852e-08 -3.8936e-08 0)
(1.38819e-08 -3.89417e-08 -5.95344e-31)
(1.39211e-08 -3.89463e-08 -5.95414e-31)
(1.3971e-08 -3.89607e-08 0)
(1.40365e-08 -3.89727e-08 0)
(1.41317e-08 -3.89761e-08 0)
(1.42389e-08 -3.89364e-08 0)
(1.4347e-08 -3.86174e-08 1.96541e-25)
(1.53644e-08 -3.36043e-08 -1.86894e-25)
(-5.58299e-09 -3.92781e-08 -3.41684e-25)
(2.66421e-07 3.98066e-07 -7.87046e-31)
(3.85505e-07 2.52722e-07 2.09494e-24)
(2.59456e-07 3.81803e-07 -2.61123e-31)
(3.62825e-07 2.39541e-07 -1.43935e-24)
(4.32795e-07 2.8378e-07 -9.47626e-25)
(2.66669e-07 3.61666e-07 4.96692e-27)
(2.66346e-07 3.98046e-07 2.09079e-25)
(3.8141e-07 2.50826e-07 0)
(3.92362e-07 2.55368e-07 2.36551e-24)
(2.66599e-07 3.98085e-07 0)
(2.71934e-07 3.80191e-07 -1.53242e-24)
(4.20444e-07 2.90226e-07 -2.80896e-24)
(2.59257e-07 3.82381e-07 3.60348e-25)
(4.19605e-07 2.71849e-07 0)
(3.49846e-07 2.38546e-07 -1.94399e-25)
(2.66382e-07 3.98035e-07 -1.96757e-31)
(2.47933e-07 3.70882e-07 -8.39745e-27)
(4.0146e-07 2.57938e-07 0)
(4.28471e-07 2.68538e-07 -4.68305e-25)
(2.66896e-07 3.98104e-07 1.03064e-24)
(3.93074e-07 2.65861e-07 1.89717e-24)
(2.90169e-07 3.89659e-07 0)
(2.66502e-07 3.98004e-07 -5.90248e-31)
(3.50605e-07 2.37319e-07 -5.2712e-25)
(4.20968e-07 2.77793e-07 8.96657e-25)
(2.66361e-07 3.62662e-07 1.53099e-24)
(2.67325e-07 3.98152e-07 6.18937e-25)
(3.37082e-07 2.50037e-07 -7.55836e-25)
(4.01818e-07 2.52536e-07 7.96132e-25)
(2.70099e-07 3.59222e-07 -9.52963e-25)
(2.66762e-07 3.97964e-07 -9.83629e-32)
(4.5834e-07 3.09086e-07 -1.0799e-24)
(2.67974e-07 3.98224e-07 -1.655e-24)
(3.58751e-07 2.85398e-07 2.24385e-25)
(3.59567e-07 2.69055e-07 -2.02677e-26)
(2.67654e-07 3.85911e-07 -2.17986e-24)
(2.67009e-07 3.52201e-07 -1.36168e-27)
(3.41877e-07 2.72477e-07 0)
(2.67145e-07 3.97883e-07 2.06236e-25)
(4.32903e-07 2.8583e-07 -9.83064e-27)
(4.06135e-07 2.90014e-07 0)
(2.66035e-07 3.97983e-07 1.02842e-24)
(2.68915e-07 3.98373e-07 1.03755e-24)
(3.50074e-07 2.37908e-07 -1.01979e-24)
(4.02561e-07 2.65321e-07 -1.3876e-24)
(2.67938e-07 3.97705e-07 3.14904e-30)
(2.66027e-07 3.8024e-07 -5.65842e-25)
(4.22009e-07 2.64522e-07 7.90762e-27)
(2.6648e-07 3.98068e-07 0)
(3.68573e-07 2.4499e-07 -1.71521e-24)
(4.16186e-07 2.74104e-07 -6.70464e-25)
(2.60429e-07 3.84149e-07 0)
(3.46421e-07 2.33944e-07 0)
(2.66371e-07 3.98052e-07 -8.25246e-25)
(2.70342e-07 3.98679e-07 -1.86785e-24)
(4.14938e-07 2.63537e-07 1.28088e-24)
(2.66721e-07 3.9809e-07 -1.18049e-30)
(3.98283e-07 2.63319e-07 1.6284e-24)
(2.6457e-07 3.92121e-07 0)
(4.57402e-07 2.99743e-07 -1.63123e-25)
(2.59184e-07 3.82213e-07 0)
(4.12619e-07 2.70173e-07 -1.28098e-24)
(4.20109e-07 2.917e-07 2.92238e-25)
(2.66346e-07 3.98036e-07 6.16188e-25)
(2.68824e-07 3.51324e-07 -1.30142e-24)
(4.20171e-07 2.82296e-07 -1.40706e-24)
(2.62e-07 3.71592e-07 -1.58785e-24)
(4.52911e-07 3.03414e-07 6.28275e-25)
(2.6753e-07 3.63657e-07 2.78251e-25)
(4.24714e-07 2.84059e-07 2.5758e-26)
(3.9802e-07 2.6022e-07 0)
(2.73496e-07 3.99782e-07 0)
(4.25131e-07 2.78326e-07 5.19732e-25)
(2.66571e-07 3.56383e-07 -8.05775e-25)
(2.52594e-07 3.72764e-07 1.97804e-26)
(4.11534e-07 3.02466e-07 0)
(3.99986e-07 2.60657e-07 -4.77098e-25)
(2.72948e-07 3.73735e-07 1.15161e-24)
(2.40556e-07 3.67081e-07 7.29607e-25)
(4.17244e-07 2.77566e-07 1.03112e-26)
(2.66439e-07 3.98023e-07 1.9677e-31)
(4.21524e-07 2.76997e-07 -4.28994e-26)
(4.08594e-07 2.93654e-07 1.17353e-24)
(2.56504e-07 3.77205e-07 -2.04035e-24)
(2.68878e-07 3.62224e-07 2.07619e-24)
(3.54923e-07 2.37754e-07 2.25932e-24)
(2.67611e-07 3.98175e-07 3.93431e-31)
(4.32241e-07 2.81421e-07 9.0318e-25)
(4.1753e-07 2.84802e-07 8.6778e-26)
(2.67111e-07 3.98131e-07 1.03136e-24)
(2.66609e-07 3.97981e-07 0)
(3.77646e-07 2.86867e-07 -3.31796e-25)
(2.71071e-07 3.53135e-07 1.96239e-25)
(4.00085e-07 2.58011e-07 -5.69104e-25)
(4.13522e-07 2.97642e-07 2.27095e-25)
(2.79802e-07 4.04625e-07 1.73611e-24)
(3.28223e-07 2.55645e-07 0)
(2.66163e-07 3.62018e-07 0)
(2.91724e-07 4.27222e-07 0)
(4.3034e-07 2.93488e-07 8.99827e-25)
(2.62479e-07 3.65537e-07 1.56617e-24)
(3.61099e-07 2.70259e-07 -5.5518e-25)
(2.66455e-07 3.98064e-07 6.16441e-25)
(3.84073e-07 2.54581e-07 -5.85047e-25)
(4.19963e-07 2.9639e-07 -2.77824e-25)
(2.66526e-07 3.98078e-07 -6.16654e-25)
(3.85739e-07 2.50846e-07 -1.91417e-25)
(2.80055e-07 3.75433e-07 -2.62409e-29)
(4.06175e-07 2.46179e-07 -4.46339e-25)
(2.66395e-07 3.98048e-07 -2.88319e-24)
(2.59357e-07 3.82238e-07 2.61526e-31)
(4.18713e-07 2.85727e-07 -1.93668e-24)
(4.5533e-07 3.00793e-07 -7.68178e-26)
(2.55984e-07 3.6825e-07 -2.02282e-24)
(2.67343e-07 3.90552e-07 -1.91838e-24)
(2.67559e-07 3.91623e-07 0)
(4.45866e-07 2.90143e-07 5.59667e-25)
(2.59354e-07 3.82679e-07 -1.22309e-24)
(2.67551e-07 3.97802e-07 -1.65239e-24)
(3.5202e-07 2.39725e-07 -2.83642e-24)
(3.89275e-07 2.64648e-07 0)
(2.6789e-07 3.88154e-07 2.16323e-24)
(3.97348e-07 2.61951e-07 1.05538e-24)
(4.10109e-07 2.74382e-07 1.63735e-24)
(2.63041e-07 3.79715e-07 -2.55817e-24)
(2.67935e-07 3.97085e-07 -1.81797e-27)
(3.51244e-07 2.72323e-07 -2.37002e-24)
(4.57032e-07 3.0707e-07 7.49574e-27)
(3.89483e-07 2.50816e-07 -2.12636e-25)
(2.71541e-07 3.99025e-07 -6.29816e-25)
(2.67965e-07 3.72705e-07 2.68211e-25)
(3.50309e-07 2.64988e-07 8.44825e-25)
(2.69515e-07 3.98496e-07 1.66451e-24)
(2.68474e-07 3.98297e-07 0)
(2.66803e-07 3.98103e-07 -7.87045e-31)
(3.8565e-07 2.65495e-07 -6.00091e-25)
(2.66663e-07 3.98084e-07 0)
(3.79641e-07 2.52232e-07 2.37692e-26)
(4.04488e-07 2.74997e-07 9.9653e-25)
(4.05203e-07 2.52825e-07 -1.14133e-25)
(4.18537e-07 2.76379e-07 9.59844e-25)
(2.59187e-07 3.82025e-07 0)
(2.66989e-07 3.98114e-07 -1.03096e-24)
(3.84819e-07 2.62641e-07 7.91106e-25)
(2.66883e-07 3.97932e-07 6.18063e-25)
(4.13094e-07 2.96243e-07 -2.92662e-25)
(4.61049e-07 3.10561e-07 -1.61196e-25)
(4.00238e-07 2.51576e-07 -5.78764e-25)
(2.66356e-07 3.98055e-07 1.8541e-24)
(3.15744e-07 2.59711e-07 -4.22514e-25)
(3.60713e-07 2.36517e-07 -1.70745e-24)
(2.66367e-07 3.98034e-07 -3.93547e-31)
(2.66356e-07 3.9804e-07 5.90282e-31)
(2.6558e-07 3.87113e-07 5.36671e-25)
(3.41188e-07 2.45198e-07 -2.92435e-25)
(2.68381e-07 3.56683e-07 -2.62826e-27)
(3.89765e-07 2.4852e-07 -1.9542e-25)
(2.66405e-07 3.98015e-07 0)
(3.57131e-07 2.41213e-07 0)
(2.68462e-07 3.50989e-07 7.86785e-25)
(2.55602e-07 3.83359e-07 5.27856e-31)
(4.131e-07 2.74401e-07 3.20955e-25)
(4.00768e-07 2.46747e-07 3.70159e-25)
(2.65216e-07 3.65068e-07 3.23125e-25)
(2.3728e-07 3.58846e-07 -2.70791e-27)
(4.53497e-07 2.9458e-07 1.47114e-24)
(4.16095e-07 3.0497e-07 -2.15784e-24)
(2.63006e-07 4.2022e-07 -2.19897e-24)
(2.6643e-07 3.98062e-07 -2.08858e-25)
(5.03466e-07 5.01043e-07 4.30684e-30)
(5.03444e-07 5.01038e-07 -2.20107e-29)
(5.03449e-07 5.01061e-07 -4.77184e-29)
(5.03425e-07 5.01053e-07 0)
(5.0343e-07 5.01078e-07 0)
(5.03407e-07 5.0107e-07 0)
(5.0341e-07 5.01094e-07 5.02097e-29)
(5.03388e-07 5.01084e-07 6.73587e-31)
(5.03389e-07 5.01108e-07 -2.42315e-29)
(5.03368e-07 5.01096e-07 -4.53938e-35)
(5.03367e-07 5.0112e-07 -4.89652e-29)
(5.03348e-07 5.01106e-07 -1.75228e-29)
(5.03345e-07 5.01129e-07 1.31862e-28)
(5.03365e-07 5.01145e-07 -3.02423e-35)
(5.0334e-07 5.01154e-07 -1.69714e-29)
(5.03321e-07 5.01137e-07 -4.84122e-29)
(5.03314e-07 5.01162e-07 3.70156e-35)
(5.03297e-07 5.01143e-07 -4.79524e-29)
(5.03288e-07 5.01167e-07 -8.01398e-35)
(5.03271e-07 5.01147e-07 4.78884e-29)
(5.03261e-07 5.01171e-07 -8.56764e-35)
(5.03245e-07 5.01149e-07 4.77109e-29)
(5.03233e-07 5.01173e-07 2.70299e-30)
(5.03218e-07 5.01149e-07 -4.79157e-29)
(5.03204e-07 5.01174e-07 2.68014e-31)
(5.0319e-07 5.01149e-07 0)
(5.03174e-07 5.01173e-07 0)
(5.03161e-07 5.01146e-07 0)
(5.03144e-07 5.01171e-07 -5.54295e-30)
(5.03157e-07 5.01199e-07 5.30728e-29)
(5.03126e-07 5.01197e-07 -4.19395e-29)
(5.0314e-07 5.01226e-07 -1.1186e-34)
(5.03107e-07 5.01224e-07 -5.60569e-30)
(5.03122e-07 5.01254e-07 -5.38931e-29)
(5.03087e-07 5.01252e-07 -6.00625e-35)
(5.03103e-07 5.01284e-07 -3.94719e-30)
(5.03067e-07 5.01281e-07 0)
(5.03083e-07 5.01314e-07 -6.29755e-35)
(5.03046e-07 5.01311e-07 1.28653e-34)
(5.03062e-07 5.01344e-07 -5.63358e-29)
(5.03024e-07 5.01341e-07 6.18897e-29)
(5.0304e-07 5.01376e-07 -6.12354e-30)
(5.03002e-07 5.01372e-07 0)
(5.03018e-07 5.01408e-07 -6.41814e-29)
(5.02979e-07 5.01404e-07 6.38273e-29)
(5.02995e-07 5.0144e-07 -6.48571e-29)
(5.02955e-07 5.01435e-07 1.28167e-28)
(5.0297e-07 5.01473e-07 2.16218e-34)
(5.0293e-07 5.01468e-07 1.4585e-34)
(5.02915e-07 5.0143e-07 -6.33424e-29)
(5.02889e-07 5.01461e-07 0)
(5.02904e-07 5.015e-07 0)
(5.02863e-07 5.01493e-07 0)
(5.02878e-07 5.01532e-07 7.56926e-35)
(5.02837e-07 5.01525e-07 1.4926e-34)
(5.02823e-07 5.01486e-07 6.17347e-29)
(5.02796e-07 5.01517e-07 -2.24002e-34)
(5.02809e-07 5.01556e-07 6.33534e-29)
(5.02768e-07 5.01547e-07 0)
(5.02756e-07 5.01508e-07 0)
(5.02728e-07 5.01538e-07 1.89937e-29)
(5.0274e-07 5.01578e-07 0)
(5.027e-07 5.01568e-07 -3.9706e-29)
(5.02688e-07 5.01529e-07 5.86344e-29)
(5.0266e-07 5.01558e-07 -5.79045e-29)
(5.02649e-07 5.01519e-07 -5.82618e-29)
(5.02621e-07 5.01548e-07 5.75098e-29)
(5.02631e-07 5.01587e-07 0)
(5.02592e-07 5.01576e-07 -2.23158e-29)
(5.02602e-07 5.01615e-07 -5.60373e-29)
(5.02563e-07 5.01604e-07 7.83327e-29)
(5.02554e-07 5.01565e-07 -2.17092e-29)
(5.02525e-07 5.01592e-07 -7.40199e-35)
(5.02534e-07 5.01631e-07 -5.44754e-29)
(5.02496e-07 5.01619e-07 0)
(5.02487e-07 5.01581e-07 0)
(5.02459e-07 5.01607e-07 1.44198e-34)
(5.02466e-07 5.01645e-07 -5.19274e-29)
(5.0243e-07 5.01632e-07 -4.98931e-29)
(5.02422e-07 5.01595e-07 5.00953e-29)
(5.02394e-07 5.0162e-07 4.95043e-29)
(5.024e-07 5.01657e-07 0)
(5.02365e-07 5.01644e-07 -7.1896e-35)
(5.02358e-07 5.01607e-07 -2.54547e-29)
(5.0233e-07 5.01631e-07 -7.4734e-31)
(5.02324e-07 5.01595e-07 6.86914e-35)
(5.02296e-07 5.01618e-07 4.51022e-29)
(5.02301e-07 5.01653e-07 -7.58798e-31)
(5.02268e-07 5.0164e-07 1.40332e-36)
(5.02263e-07 5.01605e-07 -4.4745e-29)
(5.02235e-07 5.01627e-07 -6.57642e-35)
(5.0224e-07 5.01661e-07 0)
(5.02208e-07 5.01648e-07 0)
(5.02211e-07 5.01682e-07 0)
(5.0218e-07 5.01668e-07 1.39596e-36)
(5.02176e-07 5.01634e-07 1.28903e-34)
(5.02149e-07 5.01654e-07 -2.84527e-29)
(5.02152e-07 5.01687e-07 -3.76684e-29)
(5.02122e-07 5.01672e-07 6.61172e-29)
(5.02119e-07 5.0164e-07 0)
(5.02092e-07 5.01658e-07 0)
(5.02094e-07 5.0169e-07 0)
(5.02065e-07 5.01676e-07 -3.38417e-29)
(5.02064e-07 5.01644e-07 0)
(5.02038e-07 5.01661e-07 3.34852e-29)
(5.02036e-07 5.0163e-07 2.70363e-29)
(5.02038e-07 5.01692e-07 0)
(5.02011e-07 5.01677e-07 1.18133e-34)
(5.02011e-07 5.01708e-07 -1.18813e-34)
(5.01985e-07 5.01692e-07 -1.16958e-34)
(5.01984e-07 5.01723e-07 2.9504e-29)
(5.01958e-07 5.01707e-07 5.72106e-35)
(5.01957e-07 5.01737e-07 5.89032e-35)
(5.01931e-07 5.0172e-07 0)
(5.01929e-07 5.0175e-07 -3.53616e-29)
(5.01904e-07 5.01733e-07 1.03769e-29)
(5.01901e-07 5.01763e-07 7.21235e-29)
(5.03093e-07 5.01194e-07 0)
(5.01877e-07 5.01745e-07 -3.50959e-29)
(5.01874e-07 5.01774e-07 -3.67592e-29)
(5.0185e-07 5.01756e-07 2.22178e-34)
(5.01854e-07 5.01727e-07 -2.16404e-29)
(5.01846e-07 5.01785e-07 -2.23499e-34)
(5.01869e-07 5.01804e-07 -1.16192e-34)
(5.0184e-07 5.01815e-07 -5.74982e-35)
(5.01864e-07 5.01835e-07 1.16836e-34)
(5.01834e-07 5.01845e-07 5.78162e-35)
(5.01828e-07 5.01738e-07 5.3978e-35)
(5.01832e-07 5.0171e-07 2.12849e-29)
(5.01858e-07 5.01866e-07 0)
(5.01806e-07 5.0172e-07 -3.56835e-29)
(5.01811e-07 5.01693e-07 3.33158e-29)
(5.01828e-07 5.01876e-07 -5.93671e-35)
(5.01851e-07 5.01897e-07 -6.09092e-35)
(5.01785e-07 5.01703e-07 1.01709e-34)
(5.0179e-07 5.01677e-07 0)
(5.0182e-07 5.01907e-07 5.96684e-35)
(5.01844e-07 5.01929e-07 6.12075e-35)
(5.01765e-07 5.01686e-07 -3.4584e-29)
(5.0177e-07 5.0166e-07 -9.50553e-35)
(5.01813e-07 5.01938e-07 0)
(5.01746e-07 5.01669e-07 4.77293e-35)
(5.01751e-07 5.01644e-07 -9.18672e-35)
(5.01836e-07 5.01962e-07 6.26463e-35)
(5.01804e-07 5.01971e-07 4.8082e-29)
(5.01727e-07 5.01652e-07 9.23209e-35)
(5.01732e-07 5.01628e-07 0)
(5.01828e-07 5.01995e-07 -6.2922e-35)
(5.01795e-07 5.02003e-07 0)
(5.0171e-07 5.01635e-07 3.30482e-29)
(5.01715e-07 5.01613e-07 4.2723e-35)
(5.01819e-07 5.02028e-07 -5.03975e-29)
(5.01693e-07 5.01619e-07 -3.25645e-29)
(5.01698e-07 5.01597e-07 -3.08832e-29)
(5.01785e-07 5.02036e-07 5.06589e-29)
(5.01809e-07 5.02062e-07 -5.19671e-29)
(5.01677e-07 5.01603e-07 3.12852e-29)
(5.01682e-07 5.01582e-07 0)
(5.01774e-07 5.02069e-07 5.2211e-29)
(5.01661e-07 5.01588e-07 3.16343e-29)
(5.01667e-07 5.01567e-07 2.99262e-29)
(5.01798e-07 5.02096e-07 -1.55276e-29)
(5.01763e-07 5.02103e-07 0)
(5.01647e-07 5.01572e-07 -6.153e-29)
(5.01653e-07 5.01553e-07 0)
(5.01672e-07 5.01548e-07 1.14735e-29)
(5.01658e-07 5.01534e-07 0)
(5.01677e-07 5.01529e-07 -1.19754e-29)
(5.01663e-07 5.01516e-07 2.59406e-29)
(5.01681e-07 5.0151e-07 1.01867e-34)
(5.01667e-07 5.01498e-07 2.41465e-29)
(5.01684e-07 5.01492e-07 -2.20152e-29)
(5.01671e-07 5.01481e-07 -6.41879e-35)
(5.01686e-07 5.01475e-07 6.52161e-35)
(5.01673e-07 5.01465e-07 -6.00842e-35)
(5.01688e-07 5.01459e-07 0)
(5.01675e-07 5.01449e-07 5.92623e-35)
(5.01689e-07 5.01443e-07 0)
(5.01677e-07 5.01434e-07 0)
(5.0169e-07 5.01428e-07 -2.81372e-35)
(5.01677e-07 5.0142e-07 0)
(5.01689e-07 5.01413e-07 4.11857e-35)
(5.01677e-07 5.01406e-07 1.25509e-35)
(5.01688e-07 5.01399e-07 -1.56513e-29)
(5.01676e-07 5.01393e-07 1.52205e-29)
(5.01687e-07 5.01386e-07 -8.94524e-30)
(5.01675e-07 5.01381e-07 -8.31881e-30)
(5.01684e-07 5.01373e-07 7.88713e-30)
(5.01672e-07 5.01369e-07 -1.55996e-29)
(5.01787e-07 5.0213e-07 1.4615e-29)
(5.01681e-07 5.01361e-07 1.09964e-35)
(5.01751e-07 5.02137e-07 -1.30862e-29)
(5.01728e-07 5.02109e-07 -6.68859e-29)
(5.01658e-07 5.01471e-07 0)
(5.01664e-07 5.01377e-07 -1.03937e-35)
(5.01662e-07 5.01366e-07 1.51652e-29)
(5.01715e-07 5.02143e-07 1.29031e-34)
(5.01693e-07 5.02115e-07 5.50017e-29)
(5.01775e-07 5.02165e-07 1.32785e-29)
(5.01654e-07 5.01373e-07 0)
(5.01652e-07 5.01363e-07 1.769e-35)
(5.0168e-07 5.02148e-07 9.89976e-30)
(5.01658e-07 5.0212e-07 4.62159e-29)
(5.01644e-07 5.02153e-07 -8.92619e-30)
(5.01623e-07 5.02125e-07 -5.61173e-29)
(5.01645e-07 5.01369e-07 1.10361e-29)
(5.01643e-07 5.01361e-07 1.66692e-35)
(5.01609e-07 5.02157e-07 1.24339e-34)
(5.01588e-07 5.02128e-07 -6.0757e-35)
(5.01637e-07 5.01366e-07 -1.05953e-29)
(5.01635e-07 5.01358e-07 -3.85814e-30)
(5.01574e-07 5.0216e-07 -6.5369e-30)
(5.01554e-07 5.02132e-07 5.80129e-30)
(5.01539e-07 5.02163e-07 5.29902e-29)
(5.01519e-07 5.02134e-07 0)
(5.01629e-07 5.01363e-07 6.06697e-30)
(5.01628e-07 5.01356e-07 -3.21748e-30)
(5.01559e-07 5.02193e-07 -2.18995e-31)
(5.01504e-07 5.02166e-07 -5.8582e-29)
(5.01484e-07 5.02137e-07 3.80645e-30)
(5.01469e-07 5.02168e-07 3.5819e-30)
(5.0145e-07 5.02138e-07 -5.87604e-29)
(5.01623e-07 5.0136e-07 5.74069e-36)
(5.01622e-07 5.01355e-07 2.57252e-30)
(5.01626e-07 5.0135e-07 -2.13074e-30)
(5.0162e-07 5.01349e-07 -4.89514e-36)
(5.01623e-07 5.01344e-07 0)
(5.01618e-07 5.01345e-07 0)
(5.01433e-07 5.02169e-07 -6.23052e-29)
(5.01415e-07 5.0214e-07 6.10334e-29)
(5.01617e-07 5.01353e-07 6.3579e-30)
(5.0162e-07 5.0134e-07 4.1648e-36)
(5.01398e-07 5.0217e-07 5.96453e-29)
(5.0138e-07 5.02141e-07 -5.83467e-35)
(5.01614e-07 5.01341e-07 0)
(5.01363e-07 5.02171e-07 5.84703e-35)