/*--------------------------------*- C++ -*----------------------------------*\
  =========                 |
  \\      /  F ield         | OpenFOAM: The Open Source CFD Toolbox
   \\    /   O peration     | Website:  https://openfoam.org
    \\  /    A nd           | Version:  6
     \\/     M anipulation  |
\*---------------------------------------------------------------------------*/
FoamFile
{
    version     2.0;
    format      ascii;
    class       volScalarField;
    location    "172800";
    object      Cw;
}
// * * * * * * * * * * * * * * * * * * * * * * * * * * * * * * * * * * * * * //

dimensions      [1 -3 0 0 0 0 0];

internalField   nonuniform List<scalar> 
11830
(
1.40677e-239
2.49185e-266
0
4.77548e-23
1.97803e-236
3.04547e-235
0
0
1.69933e-226
0
0
3.26842e-224
8.67534e-222
2.58493e-220
1.34965e-216
1.08599e-217
0
0
3.85761e-214
0
9.62063e-212
0
0
0
0
0
0
1.08408e-210
0
1.67826e-209
0
0
3.14971e-205
0
0
5.40713e-202
3.7341e-202
0
0
0
0
0
0
3.64716e-202
2.85449e-203
0
2.82242e-201
0
0
0
4.77774e-203
0
0
0
0
8.12462e-203
1.22475e-202
7.95923e-203
2.67876e-203
0
0
2.75476e-205
7.5476e-206
0
0
3.57342e-209
0
0
0
9.44338e-211
7.83509e-212
4.3406e-212
4.82883e-214
9.71053e-216
4.86823e-217
2.3831e-218
1.39576e-218
6.82253e-221
1.39439e-221
1.0712e-223
1.82224e-224
1.8598e-226
4.44036e-228
7.86632e-230
1.4754e-231
1.65167e-232
1.55664e-234
2.79148e-236
8.32141e-238
1.8131e-239
1.16463e-240
4.90566e-243
2.45647e-245
1.59327e-247
2.7749e-249
2.09184e-250
4.45312e-253
3.09566e-254
2.86586e-257
6.96826e-258
4.53917e-260
5.53225e-262
2.91488e-264
0
5.46159e-265
7.01979e-265
1.60484e-264
0
0
8.05722e-261
3.26891e-259
6.82862e-258
1.58325e-256
3.27731e-255
6.51013e-254
1.11487e-252
1.77178e-251
2.82503e-250
3.93179e-249
4.8854e-248
5.54511e-247
5.70077e-246
6.6636e-245
6.3317e-244
6.74312e-243
2.2727e-241
1.95511e-239
1.14122e-237
2.99033e-239
0
0
2.3963e-236
4.14586e-235
0
0
0
0
0
0
0
0
0
0
0
0
0
0
2.64645e-229
0
0
0
0
0
0
5.23922e-231
0
0
0
0
0
1.7868e-228
0
0
0
0
0
0
6.90544e-226
1.07224e-223
0
0
0
0
0
0
2.09682e-228
0
0
0
0
0
0
3.49652e-230
0
0
0
0
9.11656e-230
1.15231e-227
8.13467e-227
0
0
0
1.0716e-225
2.78887e-225
3.19093e-224
5.13806e-223
0
0
0
0
0
8.56834e-223
0
8.82505e-214
2.05789e-209
0
0
2.19932e-205
0
1.69024e-200
0
0
0
0
2.37324e-186
8.80231e-183
0
1.36695e-178
0
0
0
0
5.68642e-169
4.74855e-164
0
1.32711e-159
1.03523e-156
2.86431e-155
0
5.02071e-151
0
0
5.53352e-142
0
0
0
1.34096e-132
0
0
0
1.9014e-124
0
0
9.42648e-118
0
0
7.80603e-110
0
0
2.02893e-107
0
0
0
0
0
2.49557e-94
9.9079e-90
0
2.13867e-89
6.04026e-86
1.83667e-80
5.81806e-77
3.16781e-75
1.08931e-73
3.73418e-75
6.70306e-70
3.22903e-70
1.65086e-66
4.83376e-64
7.04062e-62
0
0
0
1.46131e-53
7.50348e-52
0
0
1.29642e-44
0
0
2.76372e-37
1.8618e-35
4.71687e-33
1.36389e-32
0
0
0
1.34248e-23
1.45229e-22
1.39637e-23
0
0
0
0
0
0
0
8.80108e-20
2.15811e-20
1.50887e-21
2.20566e-22
2.39011e-21
1.3162e-21
9.87317e-21
0
3.15251e-22
1.32928e-23
0
9.74819e-26
1.12371e-25
0
0
1.82061e-28
2.92034e-29
1.90717e-31
0
3.39053e-33
5.05284e-34
1.12824e-35
1.31227e-37
1.44586e-39
1.64739e-41
0
0
2.47233e-49
1.42427e-50
7.69721e-54
0
0
0
0
1.53567e-62
0
3.56652e-67
0
2.42854e-73
0
7.08757e-77
0
0
0
2.48268e-84
0
0
9.4636e-93
4.9337e-96
0
0
0
0
0
0
0
7.96203e-113
1.90592e-114
3.13755e-117
0
0
0
2.7079e-127
0
5.68625e-134
1.46801e-135
2.6307e-138
8.29704e-141
0
1.91805e-146
5.98328e-151
8.47234e-156
1.79204e-155
1.86176e-159
2.52129e-161
6.74104e-164
6.77211e-167
2.55063e-170
1.153e-172
5.6137e-175
8.43664e-178
7.12839e-180
9.89062e-182
4.56031e-184
8.73385e-187
5.78079e-190
3.53118e-193
1.38572e-196
4.71749e-199
4.07269e-202
1.08602e-204
1.19804e-207
8.94957e-211
2.08367e-213
1.74943e-217
3.68825e-221
2.7961e-223
1.19323e-224
6.70592e-227
9.57766e-230
7.31331e-233
1.10173e-235
0
0
0
0
0
0
0
0
0
0
5.63226e-224
0
0
0
0
0
0
0
2.75676e-209
0
1.02249e-154
1.464e-236
0
8.00412e-208
6.89866e-219
0
0
0
0
1.43436e-241
1.24159e-37
1.89554e-207
4.29004e-182
0
1.42149e-228
9.59696e-227
2.92115e-247
0
3.25722e-30
0
0
0
6.29292e-197
1.94011e-236
6.93652e-195
1.38036e-23
1.4651e-253
0
1.05909e-111
0
0
0
7.12399e-200
0
4.0473e-208
6.62928e-245
0
0
5.20867e-223
0
0
4.36618e-206
2.15895e-198
0
6.78079e-228
0
0
9.66482e-127
1.11499e-220
6.6407e-252
2.54436e-16
0
2.85611e-203
1.3184e-258
0
0
0
4.30385e-233
2.08162e-238
4.18577e-162
0
2.46919e-202
1.31168e-223
0
0
1.17768e-214
8.83062e-175
0
0
1.1764e-158
0
9.91811e-207
0
3.86094e-17
2.3301e-257
9.93462e-228
0
1.08283e-261
3.09057e-18
1.98985e-227
5.27073e-251
0
0
3.03329e-200
1.3385e-201
1.70741e-118
0
0
0
0
0
0
0
0
0
1.1953e-223
0
0
0
0
0
0
0
2.38313e-20
1.44954e-222
0
0
4.10912e-248
0
0
4.46108e-256
2.04816e-240
3.22399e-202
4.3489e-191
0
0
0
3.11771e-233
4.47041e-75
0
2.95291e-207
0
0
8.95014e-213
0
0
4.67382e-199
0
0
1.02652e-200
0
0
4.91579e-79
0
0
0
0
0
0
6.37284e-245
0
0
0
0
0
3.29412e-19
1.87189e-261
4.27116e-233
0
0
1.41782e-97
1.32294e-97
6.08879e-96
0
0
0
0
6.57963e-91
9.57186e-89
0
0
0
0
0
5.2384e-85
1.11252e-85
5.75e-84
0
0
0
0
8.28479e-80
1.10559e-77
3.00073e-79
0
0
0
1.13077e-74
0
1.41209e-74
1.64937e-77
1.20555e-75
1.21008e-77
3.94714e-77
9.26042e-79
7.57612e-80
2.81207e-80
0
6.69735e-83
0
0
0
0
0
0
1.61962e-81
5.65885e-85
1.50124e-82
1.43587e-80
5.15769e-82
7.87908e-84
1.00722e-83
2.57085e-85
0
0
0
0
0
7.60634e-81
7.20912e-82
3.46389e-84
2.85403e-83
1.46877e-81
0
0
0
0
0
0
0
9.35751e-80
6.58694e-81
2.69017e-83
2.467e-82
2.30029e-80
4.9854e-82
6.65127e-84
9.04481e-84
4.82807e-82
6.71415e-84
1.4178e-85
8.39776e-86
3.17467e-84
3.37977e-86
1.07353e-84
1.02317e-86
3.38703e-88
9.3713e-89
2.51175e-87
2.16056e-89
8.30691e-91
1.81145e-91
7.15843e-93
1.48102e-93
3.39839e-92
2.63046e-94
1.1795e-95
1.97324e-96
3.94193e-95
2.7533e-97
1.42975e-98
1.8496e-99
3.14951e-98
1.96273e-100
2.96948e-99
1.19556e-101
1.1847e-102
7.45608e-104
6.97313e-105
4.5092e-106
4.03421e-107
2.66315e-108
2.31143e-109
1.54839e-110
1.31868e-111
8.92786e-113
5.06322e-74
7.50585e-114
5.12951e-115
4.25648e-116
5.81661e-115
2.94022e-117
3.30783e-116
1.91575e-118
2.0109e-117
1.17757e-119
3.23211e-117
4.1294e-116
1.15061e-118
2.24064e-118
2.69869e-117
6.82825e-121
6.1815e-120
1.43133e-119
1.63025e-118
3.73211e-122
3.10903e-121
8.396e-121
8.92035e-120
1.91905e-123
4.3914e-122
4.25644e-121
1.45984e-122
9.25853e-125
1.97445e-123
1.71549e-122
6.3859e-124
4.17918e-126
7.4486e-125
5.74767e-124
2.5997e-125
2.33603e-126
1.59494e-125
1.76089e-127
9.85075e-127
6.08953e-128
3.67402e-127
6.9165e-129
1.3243e-129
7.05697e-129
3.47843e-128
2.5321e-130
2.41437e-131
1.13598e-130
3.40667e-128
4.83008e-130
1.48424e-127
1.85001e-129
5.81488e-127
6.37031e-129
2.04169e-126
1.97478e-128
6.41028e-126
5.56975e-128
1.80116e-125
1.47408e-127
4.5702e-125
3.87589e-127
1.07339e-124
1.06012e-126
2.42728e-124
2.88412e-126
5.36977e-124
6.76549e-126
1.08253e-123
1.13033e-125
1.67298e-123
1.00325e-125
1.14685e-129
1.49059e-123
8.64796e-132
1.7814e-132
1.79285e-130
7.54005e-128
7.29064e-129
6.30603e-134
1.21301e-134
3.53855e-131
4.33939e-131
0
4.44624e-136
8.02397e-137
3.03655e-138
5.18693e-139
0
5.78083e-133
2.01663e-140
3.30081e-141
2.28566e-135
7.43719e-135
1.3103e-142
2.08272e-143
8.39072e-145
1.30926e-145
4.03792e-137
7.86541e-137
4.91745e-144
5.33183e-147
8.20695e-148
3.37621e-149
5.11389e-150
5.54445e-139
1.11898e-138
1.44297e-136
1.64235e-138
2.10904e-136
1.15728e-138
2.13078e-151
3.15069e-152
1.23866e-140
1.52368e-136
1.33555e-153
1.90913e-154
5.90812e-140
8.26849e-156
1.13386e-156
1.27669e-137
5.03068e-158
6.59657e-159
0
3.37733e-157
2.99915e-160
3.76728e-161
3.70948e-133
0
1.75195e-162
2.12019e-163
4.22481e-162
2.31548e-164
4.28684e-163
2.28268e-165
3.8861e-164
1.9786e-166
3.05081e-165
1.4613e-167
2.02171e-166
9.81096e-169
9.04031e-169
1.12158e-167
4.3998e-129
1.23471e-130
1.4474e-128
3.70837e-130
4.09958e-128
9.55949e-130
9.86785e-128
2.06248e-129
1.9377e-127
3.51975e-129
2.88432e-127
4.34847e-129
2.9361e-127
3.4547e-129
1.75967e-127
1.42398e-129
4.31997e-128
1.34062e-130
0
0
0
8.34636e-132
0
1.4369e-132
3.44772e-134
2.0543e-132
1.89506e-134
4.1344e-133
4.68825e-170
5.24753e-169
4.89324e-140
4.3158e-136
0
1.0155e-136
0
0
1.50433e-137
2.06712e-171
2.10826e-170
2.9952e-121
8.89883e-140
4.33656e-142
2.4363e-139
4.54204e-137
4.50118e-142
2.9524e-144
7.93446e-173
7.46096e-172
7.73201e-139
3.17509e-137
1.72007e-137
0
6.60815e-144
4.41014e-146
2.35423e-139
2.90636e-138
2.73706e-174
2.40192e-173
2.95654e-175
1.19743e-145
8.69992e-148
0
0
8.48199e-142
0
0
0
1.33584e-141
1.92403e-147
1.43066e-149
2.70511e-143
1.03611e-141
1.03608e-139
1.79756e-140
1.88168e-145
0
0
0
0
9.23683e-145
0
2.69675e-142
2.35936e-144
1.98741e-143
7.0935e-141
0
0
1.01232e-176
1.10288e-177
4.92689e-140
0
2.05923e-149
1.46661e-151
1.70555e-145
3.82996e-179
4.17593e-180
9.79164e-152
6.73765e-154
2.76547e-147
3.3598e-144
6.14915e-147
0
0
1.5015e-181
1.62788e-182
0
0
1.23259e-159
0
2.00013e-161
0
0
0
0
6.13658e-184
6.59773e-185
0
2.11998e-163
2.66132e-121
6.71658e-119
5.84465e-119
1.78077e-116
1.492e-116
5.11312e-114
4.09001e-114
1.49826e-111
1.14058e-111
4.35175e-109
3.14781e-109
1.23671e-106
8.4849e-107
3.4186e-104
2.21897e-104
9.16416e-102
5.60961e-102
2.37784e-99
1.36754e-99
5.9645e-97
3.2113e-97
1.44472e-94
7.26402e-95
3.37556e-92
1.58417e-92
7.59919e-90
3.32482e-90
1.64662e-87
6.69771e-88
3.43062e-85
0
1.29213e-85
6.86729e-83
2.38389e-83
1.32025e-80
4.20745e-81
2.43765e-78
7.12592e-79
4.32484e-76
1.16626e-76
7.38092e-74
1.86642e-74
1.2137e-71
1.69456e-71
2.71184e-69
2.21747e-69
3.42005e-67
4.17543e-67
5.09607e-65
2.8414e-65
4.14789e-63
7.37422e-63
5.95554e-61
2.55544e-61
3.72655e-59
8.46892e-59
5.42697e-57
0
1.19956e-56
7.90159e-55
2.92769e-55
4.35912e-53
1.15004e-52
6.46711e-51
2.05647e-51
3.07186e-49
8.25426e-50
1.2125e-47
4.52707e-47
1.74086e-45
3.82096e-46
5.25122e-44
2.44155e-43
7.05473e-42
3.34947e-41
9.30095e-40
4.50675e-39
1.20723e-37
9.42611e-45
5.96475e-37
1.54426e-35
7.77854e-35
1.94305e-33
3.15944e-34
3.7917e-32
2.39324e-31
4.39789e-30
5.63394e-31
2.86525e-29
4.88111e-28
4.23641e-85
3.30595e-27
5.12576e-26
0
9.06254e-152
0
8.59528e-153
3.6408e-25
0
1.84465e-165
2.60388e-186
2.31467e-185
2.78196e-187
3.68737e-155
5.02817e-24
3.78625e-23
9.33627e-152
2.84346e-155
2.25993e-130
0
2.4193e-36
1.00785e-187
8.60437e-187
0
1.41784e-167
6.63752e-171
2.00072e-172
0
0
4.54019e-22
3.67349e-21
2.28661e-22
0
1.89483e-146
3.76031e-189
3.12606e-188
0
9.96161e-170
2.34158e-20
5.59577e-170
1.58534e-171
6.53559e-97
3.27847e-19
0
9.13506e-160
2.2339e-18
1.10389e-21
1.3533e-190
1.12794e-189
0
0
6.52911e-172
4.47755e-169
1.20021e-170
1.00541e-164
4.41445e-23
0
1.23524e-106
0
1.28613e-102
2.6458e-17
1.95953e-16
8.62222e-158
3.97593e-160
3.35883e-161
1.47538e-163
3.40887e-168
8.74382e-170
1.65576e-163
4.99088e-192
4.84532e-191
5.78652e-193
0
1.4693e-179
2.15938e-125
2.10005e-124
0
0
1.88974e-15
1.55481e-14
2.05679e-123
2.47905e-167
6.18029e-169
2.58803e-193
3.78838e-192
0
1.69021e-178
0
0
1.73149e-166
4.2648e-168
1.16185e-13
1.09238e-12
9.30939e-14
7.19683e-12
1.3862e-180
2.25711e-180
2.59334e-194
4.66231e-193
1.16744e-165
2.88655e-167
5.07475e-164
2.23741e-120
6.49042e-82
2.32355e-139
5.92895e-12
3.59107e-13
8.81138e-167
3.44088e-169
4.05348e-13
1.95209e-182
4.56236e-183
1.25724e-182
3.29343e-195
5.54799e-194
7.62743e-165
1.94771e-166
8.8884e-119
3.98412e-131
2.23277e-124
3.30764e-11
2.61975e-169
1.51606e-171
2.8708e-169
1.58401e-171
2.02669e-169
1.09307e-171
9.0734e-170
4.84276e-172
4.23319e-171
2.29102e-173
0
0
5.51118e-170
2.76129e-172
1.10256e-169
5.88262e-172
8.56632e-170
4.97108e-172
4.5842e-170
2.79454e-172
4.18407e-170
2.05951e-172
5.11627e-170
2.16121e-172
4.6854e-170
1.93308e-172
3.0725e-170
1.28818e-172
1.37786e-170
5.96067e-173
3.08831e-171
1.46331e-173
2.47221e-175
6.55848e-176
1.00852e-174
1.30845e-174
9.85198e-178
2.79647e-178
0
3.78178e-180
1.13898e-180
6.13084e-169
1.40205e-182
4.45217e-183
0
0
0
0
5.96845e-180
1.85747e-182
0
6.74091e-186
2.81601e-188
6.56245e-187
2.70699e-189
6.10615e-188
2.48295e-190
5.43849e-189
2.18312e-191
4.63214e-190
1.84423e-192
3.76195e-191
1.49583e-193
2.90079e-192
1.16113e-194
2.11405e-193
8.58485e-196
1.45003e-194
6.0144e-197
4.66291e-197
9.32541e-196
3.97358e-198
5.60651e-197
2.4655e-199
3.14363e-198
6.65316e-196
1.43189e-200
1.05241e-201
3.34e-197
6.54509e-195
6.3043e-203
4.3895e-204
2.94062e-196
5.37041e-194
2.18221e-195
3.78651e-193
2.69565e-205
1.8065e-206
1.1275e-207
7.43505e-209
1.42044e-194
2.40023e-192
4.66196e-210
3.11129e-211
8.47221e-194
1.40968e-191
1.12656e-11
3.5234e-13
0
7.37753e-166
0
4.47922e-172
0
4.69467e-193
7.61911e-191
1.27898e-12
0
5.07093e-196
1.93309e-212
1.34531e-213
2.17126e-212
1.0051e-214
1.61286e-213
6.06787e-216
4.86367e-164
1.38932e-165
7.09865e-168
1.67147e-184
3.62974e-196
5.29754e-195
2.24667e-197
0
5.57026e-185
7.71546e-216
1.17579e-214
1.18671e-184
2.80302e-211
1.05678e-10
2.37441e-192
3.71752e-190
0
0
0
3.12083e-163
1.17118e-164
4.8274e-182
1.54901e-184
5.50087e-12
5.97563e-14
2.86163e-12
0
1.08394e-191
1.64471e-189
1.39517e-186
1.09521e-186
3.12511e-197
3.88265e-196
6.9362e-194
4.30979e-195
8.11099e-193
4.26189e-194
8.44111e-192
3.74399e-193
7.79215e-191
2.91252e-192
1.61199e-187
5.49901e-217
7.66033e-216
2.19621e-162
7.98317e-161
1.24077e-163
5.36376e-182
4.37505e-164
0
0
2.81961e-15
0
4.54357e-191
6.7664e-189
2.4723e-187
1.00043e-186
2.60596e-188
3.74318e-186
1.46383e-184
5.26118e-184
2.1083e-182
7.20007e-182
1.64697e-183
2.11468e-181
9.56295e-180
2.63215e-179
1.23102e-177
3.18002e-177
6.22768e-179
7.10567e-177
3.73514e-175
7.90246e-175
4.27142e-173
8.56525e-173
4.75964e-171
9.03316e-171
5.16672e-169
9.23727e-169
1.47541e-170
1.39227e-168
9.10673e-167
1.24441e-166
1.65931e-168
1.28526e-166
1.04056e-164
9.05087e-165
8.98852e-167
4.90311e-165
3.48671e-167
1.18544e-165
8.03196e-163
3.60608e-168
0
0
0
0
0
2.42011e-169
2.6846e-167
0
1.28378e-178
3.47206e-169
1.6387e-167
0
2.29614e-10
0
9.34693e-170
1.19673e-168
1.90711e-161
1.51601e-162
2.05815e-160
3.02932e-193
4.22371e-12
2.16953e-197
1.1239e-188
9.58208e-189
3.38466e-218
4.24116e-217
0
0
0
0
0
0
2.73701e-169
1.11668e-169
9.19816e-168
0
3.85375e-135
3.06991e-135
8.01495e-179
3.5053e-181
1.96816e-181
4.47609e-156
4.83152e-187
4.50776e-190
1.47086e-189
1.01394e-169
3.32218e-168
1.18753e-167
8.60637e-133
5.21673e-133
6.49027e-191
0
0
0
0
0
1.88559e-161
2.43703e-159
1.22595e-170
0
2.36002e-172
0
0
3.06375e-10
1.72692e-130
8.76981e-131
5.27699e-181
0
0
0
0
5.25475e-185
3.8686e-183
8.03143e-185
1.9341e-182
5.90238e-184
1.69733e-181
4.14844e-183
1.27053e-180
2.40142e-182
7.82986e-180
1.13139e-181
7.06049e-185
3.91607e-179
2.44076e-177
1.30068e-176
7.25207e-175
4.22066e-181
4.13477e-174
2.04667e-172
1.25444e-171
5.46353e-170
3.62052e-169
1.37242e-167
1.65939e-08
1.22016e-192
4.39149e-192
1.74935e-219
1.97221e-218
1.44357e-220
8.70729e-191
7.88778e-191
7.17424e-190
3.33184e-12
4.89006e-14
3.19002e-128
1.48947e-128
0
0
5.46837e-131
6.20621e-129
1.85912e-130
2.59645e-128
1.91855e-130
2.56282e-128
7.20435e-131
6.67535e-129
0
0
5.52232e-127
0
0
3.75762e-125
0
1.70242e-123
0
1.20513e-122
0
0
0
0
0
0
0
0
0
0
0
4.49067e-116
0
0
9.98334e-109
4.25838e-107
0
1.09436e-105
0
2.57701e-126
4.00865e-105
1.19401e-103
1.52784e-105
6.32967e-102
0
3.02606e-100
0
0
6.35843e-190
1.47273e-163
1.71762e-103
0
0
2.09903e-94
2.13917e-92
1.92086e-08
1.05769e-06
6.02576e-171
0
1.14425e-90
1.42048e-89
2.00466e-87
0
0
0
0
0
2.53149e-171
1.49491e-172
9.42588e-171
6.73698e-173
8.73295e-172
3.0136e-169
0
0
0
0
0
4.19009e-175
4.18996e-173
2.74689e-171
1.77876e-171
1.52709e-173
3.14029e-172
4.45376e-170
2.78144e-171
9.90458e-167
3.22199e-165
0
2.37186e-85
3.90967e-85
5.63576e-83
0
0
7.17384e-81
0
0
0
5.23129e-77
0
0
1.33264e-71
3.90814e-72
6.77808e-69
5.24104e-70
1.43863e-66
1.69556e-66
4.82245e-64
1.92604e-64
8.18838e-62
1.50902e-62
7.24585e-60
0
0
1.46891e-57
0
2.00613e-55
0
0
0
0
1.05044e-192
9.77784e-192
2.21992e-160
2.8314e-158
1.94639e-19
6.12065e-21
5.82475e-23
8.2407e-23
9.77769e-24
1.42911e-25
1.27965e-25
0
4.55102e-28
0
0
0
0
0
0
3.22451e-38
0
6.96725e-40
3.27722e-41
8.04001e-42
6.54843e-43
2.40901e-44
7.63516e-45
2.74743e-44
5.71417e-46
0
1.31904e-47
0
0
0
0
0
0
0
3.55619e-46
4.0951e-50
3.41015e-47
2.64609e-49
1.11163e-48
1.99055e-50
0
5.60293e-52
0
0
0
0
0
0
0
0
4.31085e-52
0
0
3.36107e-53
3.35385e-51
1.01766e-52
1.39857e-184
6.83453e-167
0
3.24167e-157
3.63403e-156
6.74145e-169
1.41071e-54
2.41145e-54
2.51123e-169
1.10193e-52
1.83904e-54
4.70132e-56
2.65887e-56
7.69648e-55
8.95465e-57
3.41169e-58
9.57203e-59
2.0369e-57
1.92022e-59
9.54818e-61
1.73211e-61
3.01037e-60
2.54814e-62
1.50977e-63
2.10937e-64
3.17624e-63
2.52318e-65
1.71128e-66
1.95999e-67
2.5662e-66
1.88465e-68
1.48244e-69
1.33616e-70
1.47475e-69
9.7139e-72
9.11695e-73
6.16269e-74
5.72458e-73
3.43609e-75
3.77929e-76
2.02069e-77
2.25302e-78
1.17291e-79
5.24946e-102
2.55745e-164
7.00097e-163
1.73412e-14
3.17433e-16
1.21257e-186
0
0
1.00126e-06
5.80953e-05
7.60627e-221
7.80847e-220
2.07738e-217
7.58681e-219
2.05849e-216
7.07225e-218
1.9387e-215
6.48888e-217
3.20147e-195
0
1.29325e-194
8.29397e-194
0
0
2.14194e-53
0
2.85665e-74
1.72037e-50
4.01846e-43
1.93956e-167
0
3.0548e-157
3.8868e-155
1.76439e-214
6.211e-216
1.31499e-80
6.76285e-82
0
7.50581e-39
5.47617e-186
8.23411e-178
6.03948e-176
0
0
0
1.29561e-139
9.56879e-143
4.60148e-141
4.8383e-143
1.80011e-143
1.21457e-141
9.20837e-146
2.13537e-142
1.32257e-143
3.38373e-141
8.56475e-143
1.86801e-140
5.28462e-142
6.20103e-162
1.58386e-189
2.07773e-165
1.82367e-163
0
0
0
0
0
0
5.38221e-153
3.06531e-156
1.3235e-150
6.98481e-150
3.4741e-149
1.81568e-147
0
7.62136e-146
0
0
0
0
7.68532e-140
0
1.19368e-134
2.55675e-135
6.1169e-134
2.0692e-132
0
0
0
0
3.95607e-126
2.11968e-126
0
2.37743e-124
0
0
0
0
4.07144e-121
1.89262e-118
1.59185e-119
5.75741e-118
0
0
0
5.47007e-117
4.95299e-114
3.21592e-115
8.28959e-114
0
7.0521e-112
2.84736e-118
0
0
0
1.64347e-121
0
1.04324e-112
2.82552e-110
1.11976e-111
1.09348e-113
2.03563e-113
0
0
0
0
0
1.33237e-110
0
1.95491e-111
2.68313e-109
8.56151e-111
9.75869e-113
1.81827e-112
6.67384e-111
0
0
0
3.00622e-114
0
3.16798e-108
2.21792e-145
2.11045e-51
0
0
0
1.47012e-47
0
7.83414e-18
5.87402e-188
1.09e-139
4.02537e-05
0.00261812
5.91606e-164
4.6198e-155
0
8.72394e-169
9.45067e-35
0
1.2588e-137
5.72915e-106
4.39209e-126
0
0
0
1.26997e-194
2.70661e-107
0
5.67058e-81
3.29459e-83
3.88999e-84
1.91238e-85
0
4.69482e-114
0
1.94765e-109
1.99187e-107
3.75209e-109
1.19933e-107
0
5.95794e-111
0
0
1.51351e-174
2.0572e-174
1.03766e-176
2.35954e-176
5.95359e-129
7.67476e-164
4.50175e-166
1.32377e-150
1.53659e-84
8.96689e-87
1.10741e-87
5.19421e-89
6.38389e-90
2.97536e-91
3.65371e-92
1.67753e-93
2.06882e-94
9.26145e-96
1.15387e-96
4.98203e-98
2.97888e-156
3.80036e-154
1.00653e-54
0
0
0
2.41392e-219
2.84723e-222
0
0
8.18777e-198
3.78225e-197
0
0
0.00109397
0.0892601
3.23997e-141
1.55527e-163
7.47482e-54
1.60438e-213
6.96457e-215
6.30844e-99
1.0563e-56
7.6717e-147
0
3.86844e-162
0
2.30447e-79
1.26148e-109
0
0
0
1.81111e-189
2.57289e-155
3.31758e-153
1.95342e-157
2.60014e-100
3.16635e-165
1.90146e-167
1.67757e-170
4.43786e-72
0
0
7.31468e-105
0
4.85367e-106
0
0
0
1.87299e-51
0
0
0
4.12936e-161
0
1.71542e-199
0
1.4782e-06
0.014299
2.04093
4.14403e-153
6.33551e-150
5.03576e-185
9.86302e-185
3.43558e-187
5.80552e-187
2.10794e-189
3.99313e-189
1.53337e-191
3.11308e-191
1.17197e-193
2.0218e-193
7.16623e-196
8.91947e-196
2.5862e-193
6.87539e-196
0
1.28196e-166
2.05161e-193
1.88359e-196
1.42308e-56
6.84922e-139
2.18822e-137
2.07361e-200
1.10806e-199
2.22894e-198
1.57282e-212
1.0225e-213
6.05429e-216
1.195e-214
7.48658e-217
1.42863e-215
6.76187e-86
6.78586e-95
3.64606e-180
7.21675e-182
1.92731e-154
2.53189e-152
7.32822e-104
1.86592e-105
1.69148e-107
3.81859e-107
2.84103e-105
4.3193e-107
7.35528e-91
2.68572
53.0379
5.59696
39.578
0.971829
312.899
2.53269e-174
0
5.85293e-194
3.68789e-197
1.34561e-195
8.70886e-196
1.82936e-193
3.16048e-195
1.3411e-197
2.91762e-197
7.2499e-193
1.38014e-53
3.36449e-101
1.23166e-166
7.57403e-169
6.52366e-171
1.31798e-68
0
8.34259e-194
3.32835e-196
0
1.42125e-37
5.04321e-50
8.94505e-52
0
0
0
0
1.69095e-140
1.36427e-136
4.36553e-135
7.07838e-163
1.31231e-102
8.90186e-102
7.36925e-143
3.8949e-145
3.2413e-128
9.92073e-189
9.58701e-181
1.51039e-184
0
1.2227e-153
1.64945e-151
0
2.46151e-105
3.03682e-107
1.12006e-169
4.56463e-171
6.49466e-172
4.97255e-53
1.26371e-53
3.32039e-122
2.05149e-160
0
0
8.26491e-218
1.38383e-216
1.19191e-199
1.98731e-199
5.46578e-203
3.28846e-202
0
2.55498e-134
8.83848e-133
2.95712e-184
3.34254e-142
1.38496e-186
0
0
6.39317e-153
8.91661e-151
4.84626e-56
4.27e-109
2.51414e-214
2.10828e-215
4.24564e-211
3.86418e-210
4.52974e-168
4.82704e-152
2.1605e-149
1.19779e-148
3.86478e-150
5.35865e-148
1.28513e-149
1.84735e-147
3.07736e-149
4.59525e-147
4.7614e-149
1.38726e-160
0
2.70044e-173
1.39108e-66
1.25912e-35
0
7.06875e-35
5.19029e-37
5.16792e-197
1.41059e-105
4.20162e-104
2.46407e-103
1.743e-103
1.50123e-107
3.45518e-109
4.61247e-181
7.38305e-147
3.68374e-149
1.68108e-213
1.31983e-130
7.80656e-117
4.46387e-125
3.23137e-78
1.0152e-98
9.43263e-152
3.25905e-132
1.20029e-120
7.09536e-166
0
0
0
0
1.38516e-182
3.85538e-187
4.24643e-196
1.41516e-180
0
3.72439e-174
3.18318e-53
1.54688e-28
1.23866e-103
3.25873e-51
4.71579e-49
4.38322e-155
0
0
0
0
0
0
1.42637e-187
2.23281e-162
4.55062e-132
1.82431e-130
4.03256e-213
2.91515e-214
1.37441e-216
1.64147e-215
3.6534e-213
1.7785e-214
1.56354e-146
1.08218e-26
1.45425e-144
6.83112e-144
8.68961e-33
1.85114e-195
6.82438e-198
5.96987e-106
0
8.99999e-206
0
0
7.95144e-202
1.04242e-201
2.56425e-199
1.00329e-201
7.08461e-160
7.98234e-130
3.7579e-128
1.17347e-162
4.662e-122
3.53963e-204
1.12566e-183
8.54109e-190
2.82923e-189
1.50406e-141
1.08401e-105
1.12121e-208
9.88454e-208
5.73871e-108
9.60728e-66
0
2.44203e-167
3.74613e-165
5.45579e-105
6.53942e-145
1.33046e-97
1.08712e-144
0
5.8903e-65
1.81043e-67
1.57448e-175
1.06254e-174
0
0
4.14581e-212
1.74681e-213
4.40013e-173
0
6.53595e-19
0
0
0
0
1.83547e-24
0
7.28483e-23
1.25054e-26
1.52431e-28
4.53801e-18
0
3.22438e-197
1.11265e-199
9.04253e-195
2.42586e-200
3.73394e-202
8.35015e-203
1.22615e-204
2.79795e-205
4.76654e-204
1.52768e-206
5.18935e-206
8.20864e-56
1.72922e-32
3.18025e-146
2.19824e-145
2.11994e-176
0
0
0
0
1.35628e-188
0
2.99367e-190
4.38567e-29
9.0858e-31
1.0237e-58
0
0
0
0
7.651e-53
1.67804e-50
6.26874e-59
3.87979e-62
3.00222e-131
0
1.08179e-181
0
0
1.65851e-208
4.89068e-208
7.02532e-218
4.94118e-208
1.30982e-207
4.123e-204
2.98317e-204
1.45736e-127
7.46617e-126
3.7067e-191
4.15413e-162
1.16483e-164
0
2.29711e-207
3.03785e-205
4.25588e-211
1.55404e-212
5.86898e-215
4.55785e-214
2.24145e-107
4.59318e-108
0
0
1.58367e-10
0
8.92109e-143
0.246535
1.46627e-126
2.51354e-124
1.39237e-123
4.03206e-122
1.5266e-142
1.27816e-132
0
2.02269e-106
1.81008e-108
6.31404e-177
3.95417e-176
6.33347e-202
2.25874e-66
0
1.95659e-151
0
0
3.16469e-50
5.46538e-48
0
0
0
0
0
5.8221e-183
2.91266e-206
3.23344e-207
2.54714e-205
1.22352e-166
1.84865e-164
1.34025e-147
1.56093e-148
1.65996e-146
9.64874e-107
2.41744e-104
2.76668e-205
1.35526e-124
1.9255e-133
5.02115e-115
1.91826e-116
1.84457e-177
6.93897e-15
8.10774e-182
6.73929e-184
1.40921e-182
2.66222e-128
0
1.99464e-134
0
0
2.78396e-161
0
1.22517e-158
1.27196e-157
2.16914e-156
5.9051e-155
2.41574e-154
0
5.5867e-154
0
0
0
0
2.35107e-150
1.59633e-154
3.17141e-133
1.14031e-178
4.7427e-202
0
0
0
0
9.3532e-188
0
0
1.67436e-33
1.43652e-159
8.15244e-165
2.16474e-167
0
0
1.72289e-185
0
2.35824e-121
6.20278e-120
3.9483e-210
9.20478e-210
0
1.88611e-151
3.39465e-153
1.58278e-151
1.15341e-153
1.69064e-152
0
0
0
0
0
0
3.52593e-197
7.81174e-200
1.01618e-186
2.28205e-30
0
3.27765e-188
2.40012e-178
1.53187e-205
1.22453e-207
6.4862e-31
7.59939e-48
1.19262e-45
0
2.31904e-65
2.8154e-30
1.06184e-167
4.65824e-170
0
3.946e-210
8.09892e-210
1.60548e-216
1.09986e-215
0
6.59527e-209
4.67169e-210
5.65887e-210
1.92251e-207
1.3017e-209
2.37209e-210
4.35751e-207
3.59623e-209
1.40507e-206
1.54745e-206
0
0
3.31661e-186
3.58858e-119
9.58484e-118
1.89642e-118
2.86689e-116
0
8.15148e-21
4.31307e-87
4.68807e-175
2.60612e-177
5.33375e-176
3.77527e-28
9.11844e-207
1.18052e-197
0
0
3.25004e-202
0
4.79976e-203
1.03203e-205
3.5626e-205
1.62352e-202
8.94989e-205
4.22567e-202
1.81817e-204
8.76839e-202
2.91972e-204
1.41112e-201
3.99736e-204
1.87976e-201
5.93908e-204
2.70993e-201
1.04844e-203
4.78633e-201
2.05861e-203
8.27867e-201
8.79127e-203
2.60898e-200
6.86065e-202
2.026e-199
4.74867e-201
1.55328e-198
5.62962e-197
4.73919e-196
1.48965e-194
2.38692e-200
1.33849e-193
3.88392e-192
5.96768e-207
1.36076e-203
2.30941e-206
3.46682e-191
1.02697e-189
7.59524e-208
8.489e-193
8.59209e-189
1.00422e-192
2.75764e-187
1.21601e-198
2.17283e-186
3.67985e-156
1.71508e-154
0
0
0
0
0
2.77095e-149
1.60422e-150
2.90257e-148
6.69392e-150
7.33662e-148
1.19685e-149
9.92241e-148
1.30214e-149
8.86115e-148
9.9804e-150
5.85338e-148
5.93445e-150
6.83974e-146
0
3.11162e-148
2.92972e-150
3.19517e-146
5.78432e-152
2.67739e-152
1.24275e-150
1.07259e-152
2.37964e-154
1.44811e-162
0
8.13639e-67
0
7.05649e-69
0
4.02098e-66
0
0
0
6.1139e-202
6.14933e-196
1.16677e-194
2.10053e-185
1.65113e-184
1.52639e-115
3.92411e-114
6.66236e-115
9.75414e-113
4.83754e-112
1.4865e-110
4.22045e-111
6.38698e-109
2.30243e-108
8.80451e-107
0
0
8.88547e-110
1.87678e-110
2.23549e-204
9.87402e-206
4.5649e-151
3.71434e-153
8.08677e-205
8.39125e-206
2.76382e-28
0
1.0374e-21
3.6387e-106
9.36075e-104
1.17584e-140
2.05745e-140
1.30455e-142
4.26956e-125
1.39253e-177
0
0
1.95172e-199
0
2.95162e-73
1.26264e-151
2.0833e-170
1.6725e-192
3.63001e-194
0
0
2.70986e-186
2.8473e-178
1.42849e-179
5.29602e-177
1.15149e-206
8.24213e-209
5.76633e-107
6.64411e-105
4.87026e-109
1.57371e-110
0
0
1.96433e-190
1.11736e-187
0
7.95221e-67
2.81102e-21
2.23549e-19
6.51464e-54
1.96466e-55
2.23308e-187
6.27634e-186
0
0
0
0
0
0
1.24291e-148
2.64591e-147
2.43886e-145
7.43962e-185
4.8461e-185
5.70329e-166
3.83128e-168
8.34956e-164
2.76352e-162
8.53337e-174
1.24292e-150
8.64248e-180
1.26347e-45
1.89657e-43
3.24673e-05
4.51865e-219
4.53418e-220
2.601e-221
2.3573e-222
1.42159e-223
1.16217e-224
7.36806e-226
0
0
4.37002e-141
1.33419e-196
3.85508e-194
4.05385e-123
1.17582e-189
0
1.43282e-180
1.52305e-137
8.99891e-140
1.10663e-120
1.42224e-14
2.24135e-169
0
0
1.50303e-38
0
0
0
3.72689e-146
0
7.68194e-188
0
3.53788e-106
1.09057e-104
6.5576e-211
8.2603e-211
2.64382e-212
4.2819e-212
3.68282e-218
2.26221e-217
6.87188e-215
1.27517e-216
5.50156e-219
1.67207e-212
1.0548e-212
2.49331e-211
4.62182e-211
1.55907e-208
6.85952e-211
2.35428e-208
7.56794e-211
1.10873e-120
5.70767e-184
1.10684e-186
3.02112e-186
1.86055e-184
2.91512e-187
0
0
0
1.50983e-183
0
9.894e-185
1.74298e-182
3.44376e-184
2.97391e-186
4.63488e-186
2.33237e-184
1.4692e-187
0
0
0
2.1073e-183
0
9.66961e-185
3.15599e-187
2.63362e-186
1.81956e-182
1.39962e-188
5.49811e-188
3.75145e-190
9.61336e-190
1.04038e-187
1.43609e-189
1.27267e-187
1.49611e-189
1.81282e-191
1.6547e-191
1.21022e-189
1.22393e-191
1.73834e-193
1.19806e-193
7.80086e-192
7.24965e-194
1.14152e-195
6.58251e-196
1.06189e-197
5.83703e-198
3.35206e-196
2.812e-198
5.04997e-200
2.28989e-200
6.82184e-192
1.1658e-198
8.88503e-201
1.80818e-202
6.56928e-203
2.9706e-201
2.08623e-203
8.8437e-202
6.0326e-204
1.4414e-205
4.08119e-206
1.6361e-204
1.08535e-206
4.1372e-205
2.66604e-207
7.10801e-209
1.69467e-209
6.00173e-208
3.7374e-210
1.25978e-208
7.76748e-211
2.32306e-212
4.76998e-213
1.4429e-214
2.89752e-215
2.48765e-209
8.92159e-217
1.72574e-217
5.13743e-216
2.86544e-218
9.99407e-220
1.53777e-220
3.94967e-219
1.95117e-221
4.49072e-220
2.05405e-222
9.26234e-224
9.09856e-225
1.84695e-223
7.84768e-226
1.50652e-224
6.45227e-227
1.22828e-225
5.60065e-228
2.8534e-229
2.66644e-230
5.28347e-229
2.61227e-231
4.97012e-230
2.40186e-232
4.20063e-231
1.91046e-233
3.00861e-232
1.12946e-234
8.36611e-236
5.13026e-237
3.51902e-238
2.2416e-239
1.31788e-231
1.42046e-240
1.99926e-239
9.40102e-242
1.32925e-240
5.79471e-243
4.23781e-226
8.9339e-229
3.78125e-244
2.42388e-245
7.34843e-242
4.18116e-216
4.07957e-207
7.58917e-208
5.78442e-188
0
4.10579e-198
2.12159e-203
5.59123e-202
1.40013e-204
1.99323e-203
1.89335e-204
0
1.89607e-23
9.82392e-15
0
1.85673e-156
8.06111e-158
3.9533e-156
3.64058e-154
9.12187e-155
9.03625e-158
0
2.15737e-154
0
5.5553e-139
1.50181e-139
9.67306e-46
2.10255e-67
2.56098e-69
7.35931e-69
2.87326e-71
0
0
1.26643e-109
4.26487e-156
0
3.03734e-160
0
1.54483e-156
1.47195e-158
2.46164e-157
2.3248e-160
0
0
1.50947e-159
0
4.03191e-158
6.66502e-161
0
6.19749e-156
3.56053e-187
6.90504e-186
8.66298e-188
2.85017e-186
3.49058e-184
4.54149e-185
0
0
1.7981e-140
8.00015e-144
0
0
0
2.7922e-188
0
0
0
5.86691e-21
2.18572e-185
3.17667e-185
0
1.71898e-105
0
3.8444e-179
4.0033e-111
1.33123e-112
2.6617e-179
4.4407e-178
1.19265e-105
3.14071e-103
4.3791e-108
0
0
2.62741e-208
5.5065e-211
5.53242e-190
3.84222e-205
4.79486e-196
1.42235e-193
1.0773e-191
4.09593e-191
2.90045e-189
1.14003e-188
7.50021e-187
3.05592e-186
1.85781e-184
7.86562e-184
4.39773e-182
8.51309e-183
1.83734e-180
2.92311e-181
5.70944e-179
3.76752e-178
7.48208e-180
1.05644e-176
7.32798e-176
1.8503e-174
1.35028e-173
4.35352e-175
8.42898e-173
2.19301e-174
4.45365e-172
1.54607e-170
8.57916e-170
1.96599e-171
3.96991e-169
1.56565e-167
7.60373e-167
1.50559e-168
3.02055e-166
1.09748e-39
0
0
4.88366e-204
2.80912e-223
2.868e-73
0
0
0
1.99295e-79
0
2.21078e-81
9.02047e-84
0
9.42787e-88
0
0
0
0
1.2089e-87
0
0
0
0
0
0
8.55134e-97
2.86235e-99
1.08815e-98
6.49688e-101
4.31302e-101
4.04737e-103
3.96666e-103
2.56748e-105
2.94285e-105
1.61001e-107
1.91954e-107
4.42964e-101
9.00296e-108
9.7835e-110
1.14518e-109
5.7073e-112
6.38694e-112
6.66935e-103
3.18895e-114
3.37507e-114
1.9427e-114
6.02618e-112
2.9337e-114
4.39663e-60
5.04234e-50
3.35089e-28
2.40181e-30
4.44052e-26
2.03833e-103
2.51498e-177
0
0
0
8.12455e-168
0
1.14145e-164
4.58802e-165
2.13121e-162
9.68946e-162
0
7.8982e-160
0
0
0
0
4.37153e-153
0
7.26958e-150
4.12224e-151
3.21932e-148
1.24248e-150
0
0
0
0
0
0
0
0
3.40213e-134
0
3.92314e-131
4.17297e-132
0
6.81149e-129
0
2.64699e-127
0
0
0
1.74158e-122
1.2191e-119
9.42583e-120
1.64567e-117
0
0
0
0
0