/*--------------------------------*- C++ -*----------------------------------*\
  =========                 |
  \\      /  F ield         | OpenFOAM: The Open Source CFD Toolbox
   \\    /   O peration     | Website:  https://openfoam.org
    \\  /    A nd           | Version:  6
     \\/     M anipulation  |
\*---------------------------------------------------------------------------*/
FoamFile
{
    version     2.0;
    format      ascii;
    class       surfaceScalarField;
    location    "172800";
    object      phiw;
}
// * * * * * * * * * * * * * * * * * * * * * * * * * * * * * * * * * * * * * //

dimensions      [0 3 -1 0 0 0 0];

internalField   nonuniform List<scalar> 
35087
(
-1.52009e-08
2.97425e-08
-3.65713e-08
-3.65223e-08
-2.26113e-08
6.12688e-10
-3.17296e-08
1.53716e-08
1.34629e-08
2.85301e-08
2.22617e-08
2.80489e-09
1.27339e-08
-1.8292e-07
5.65053e-07
-1.99962e-09
5.38305e-08
-7.37041e-07
4.72562e-09
-1.85305e-07
2.55765e-07
-2.98725e-10
6.91949e-08
-8.29056e-07
3.89495e-08
-2.01492e-07
2.20491e-07
-1.70011e-08
-7.26225e-07
1.29733e-07
-6.69865e-09
1.82294e-07
-4.03201e-07
-6.19704e-09
-6.30874e-07
1.45137e-07
3.02648e-08
2.06958e-07
-7.77889e-07
1.15493e-08
-3.62886e-07
1.87063e-07
-2.22229e-08
1.80585e-07
-7.10765e-07
1.64702e-08
-5.21153e-07
2.10732e-07
-3.34303e-08
2.73752e-07
-3.86998e-07
-1.95848e-09
1.10632e-07
-7.80977e-07
-1.05938e-09
-1.75074e-07
2.58004e-07
3.31881e-09
7.72499e-08
-8.14672e-07
3.59656e-08
-2.24672e-07
2.24868e-07
-1.6229e-08
-7.51518e-07
1.27721e-07
1.60259e-08
1.96172e-07
-4.86829e-07
-3.3648e-08
-3.80891e-07
2.79321e-07
1.06676e-09
1.06773e-07
-8.30729e-07
2.18748e-08
-2.16744e-07
2.36365e-07
-1.44876e-08
-7.2325e-07
1.65565e-07
7.49068e-09
2.41648e-07
-5.36806e-07
4.27571e-09
-4.67863e-07
1.97609e-07
1.53998e-08
-5.0483e-07
1.45492e-07
-3.32545e-08
2.97188e-07
-3.47702e-07
-4.0259e-09
1.26994e-07
-7.99465e-07
4.85819e-09
-1.92615e-07
2.59655e-07
-9.03849e-10
7.45379e-08
-8.12002e-07
3.8374e-08
-1.91048e-07
2.36599e-07
-1.49309e-08
1.25018e-07
-7.44595e-07
1.81039e-08
-5.01824e-07
1.8452e-07
-2.60434e-08
2.76266e-07
-3.84003e-07
-5.37798e-10
-7.53151e-07
1.09018e-07
3.33027e-08
2.77621e-07
-2.21753e-07
-1.85873e-08
-6.86623e-07
1.65532e-07
1.66684e-08
2.0912e-07
-5.07757e-07
-3.56029e-08
-3.75139e-07
2.7362e-07
7.87517e-10
1.04823e-07
-8.32345e-07
-4.61935e-09
-2.07551e-07
2.26374e-07
2.00736e-09
8.06875e-08
-8.1806e-07
3.35087e-08
-2.08005e-07
2.25959e-07
-1.34765e-08
1.41918e-07
-7.21047e-07
2.08258e-08
-5.08377e-07
1.93449e-07
-3.53001e-08
3.00223e-07
-3.38136e-07
-1.31872e-09
1.61659e-07
-7.52501e-07
3.70115e-08
-2.07291e-07
3.21856e-07
-1.67983e-08
1.9004e-07
-6.36912e-07
-3.71107e-09
-3.94458e-07
2.37767e-07
-3.57852e-11
2.34466e-07
-5.40979e-07
1.60655e-09
-4.12337e-07
1.59292e-07
4.40985e-09
1.92884e-07
-5.87689e-07
2.30215e-08
-5.28221e-07
1.38865e-07
-3.08588e-09
2.21193e-07
-4.82381e-07
-2.49822e-08
-7.0512e-07
1.99627e-07
-6.39645e-11
2.00577e-07
-4.70477e-07
-2.80128e-09
2.08603e-07
-5.48989e-07
2.10721e-09
-3.66171e-07
2.00847e-07
-2.93209e-09
1.84014e-07
-5.27989e-07
4.25425e-10
-5.14949e-07
2.06219e-07
4.0384e-09
1.94486e-07
-5.29675e-07
1.54568e-09
-4.68613e-07
2.02891e-07
5.74218e-10
1.6205e-07
-4.27324e-07
2.52229e-09
-5.56099e-07
2.24202e-07
2.00302e-08
1.7004e-07
-5.01329e-07
-8.18875e-09
-4.62773e-07
2.4516e-07
-1.91157e-08
2.03515e-07
-7.48493e-07
6.03883e-09
-5.33607e-07
2.56317e-07
3.18325e-09
2.05725e-07
-4.59822e-07
1.30376e-08
-4.88492e-07
1.4837e-07
-2.99535e-08
2.8343e-07
-3.8716e-07
-3.99056e-09
1.12432e-07
-7.85353e-07
3.88769e-09
-1.9598e-07
2.54929e-07
1.10923e-11
6.49574e-08
-7.99623e-07
3.85388e-08
-1.82884e-07
2.288e-07
-1.60085e-08
-7.21629e-07
1.31458e-07
-6.67611e-09
1.87524e-07
-3.98254e-07
-6.40362e-09
1.50997e-07
-6.28972e-07
2.81654e-08
-7.65484e-07
2.17598e-07
1.00765e-08
1.99882e-07
-3.55044e-07
-2.1014e-08
-7.09031e-07
1.76233e-07
-3.45141e-10
-4.24829e-07
2.09709e-07
-1.84294e-09
2.08508e-07
-5.8707e-07
1.99054e-08
-5.01287e-07
1.71094e-07
-5.46667e-09
2.8148e-07
-4.15608e-07
-2.57264e-08
-6.23914e-07
1.73665e-07
6.99958e-09
3.23692e-07
-6.41944e-07
8.37132e-09
-4.09464e-07
2.31949e-07
1.83822e-08
1.68242e-07
-4.79075e-07
-3.29917e-08
-4.00787e-07
2.83504e-07
-2.27333e-09
1.08395e-07
-7.87294e-07
-1.75572e-09
-1.92361e-07
2.49183e-07
1.66996e-10
6.48176e-08
-8.3392e-07
3.99666e-08
-1.90744e-07
2.10441e-07
-1.32782e-08
-7.11816e-07
1.48702e-07
-7.91877e-09
1.81272e-07
-4.13721e-07
-2.45773e-08
-4.40902e-07
1.59775e-07
1.01256e-07
-6.42595e-07
2.65832e-08
7.83181e-08
-8.48295e-07
-1.72508e-08
2.1112e-07
-3.37757e-07
-2.34081e-10
1.77798e-07
-6.37464e-07
1.07651e-10
-5.35868e-07
1.80996e-07
9.8109e-10
-5.4503e-07
1.81191e-07
2.1114e-09
1.80117e-07
-5.44228e-07
2.57581e-09
-5.52264e-07
1.76718e-07
1.74496e-09
1.77778e-07
-5.55605e-07
1.04027e-09
-5.3994e-07
1.84347e-07
-8.05687e-10
1.89718e-07
-5.27103e-07
-2.7686e-09
-5.0997e-07
1.99916e-07
-2.54357e-09
2.00895e-07
-5.07644e-07
-1.64326e-09
-5.09749e-07
1.9557e-07
-6.18574e-10
-5.29293e-07
1.87864e-07
2.47891e-10
1.83247e-07
-5.35088e-07
-7.25216e-11
-5.4608e-07
1.77555e-07
-4.62012e-10
1.71647e-07
-5.53271e-07
1.73443e-10
-5.60473e-07
1.67346e-07
6.55548e-10
1.67444e-07
-5.61769e-07
1.03778e-09
1.70031e-07
-5.63546e-07
5.00913e-10
-5.5407e-07
1.80692e-07
-1.8155e-09
-5.31538e-07
1.89675e-07
-1.12439e-08
1.89279e-07
-4.87245e-07
4.29179e-08
-3.61339e-07
4.26229e-07
-4.11953e-08
-1.47548e-10
-6.04534e-07
1.00646e-07
9.15297e-09
1.14482e-07
-8.25129e-07
3.49044e-09
-5.1336e-07
1.42126e-07
3.72718e-09
1.59275e-07
-5.69671e-07
3.77295e-09
1.63578e-07
-5.99282e-07
6.68223e-09
-5.95034e-07
1.95118e-07
3.63566e-09
2.28331e-07
-6.25996e-07
-8.84287e-13
-6.40758e-07
2.57555e-07
1.82001e-12
2.57386e-07
-6.42353e-07
-9.3647e-13
-6.42712e-07
2.57529e-07
-5.18247e-09
2.56808e-07
-6.4428e-07
-4.55382e-09
-5.76583e-07
2.49876e-07
-2.17611e-09
2.19533e-07
-6.03111e-07
-2.02757e-09
-5.63945e-07
2.14689e-07
-9.90791e-10
1.99695e-07
-5.74263e-07
-9.74419e-10
-5.55268e-07
1.96953e-07
-6.7957e-10
1.89419e-07
-5.5942e-07
-8.78619e-10
-5.46481e-07
1.87205e-07
-4.96668e-10
1.84274e-07
-5.55846e-07
-6.85997e-10
-5.65513e-07
1.82089e-07
-8.98431e-10
1.73338e-07
-5.60508e-07
4.1312e-10
-5.65105e-07
1.67776e-07
2.56748e-09
1.56096e-07
-6.03847e-07
9.52273e-09
1.69474e-07
-6.89256e-07
6.9032e-09
-6.79544e-07
2.20083e-07
-7.07351e-13
2.56739e-07
-6.29208e-07
-6.28413e-13
-6.42461e-07
2.57151e-07
1.30068e-12
2.56227e-07
-6.42528e-07
-6.09341e-13
-6.42316e-07
2.56325e-07
1.25161e-12
2.50848e-07
-6.28598e-07
-4.69798e-09
-6.30465e-07
2.50302e-07
-6.26273e-09
2.36699e-07
-5.53819e-07
-2.94085e-10
-5.50678e-07
1.99371e-07
1.63099e-09
-5.83933e-07
1.77877e-07
4.98088e-09
1.96103e-07
-5.88078e-07
4.5241e-09
-6.2964e-07
2.22277e-07
1.09983e-12
2.57407e-07
-6.38822e-07
1.0222e-12
-6.42289e-07
2.57341e-07
-5.18997e-13
2.57354e-07
-6.42427e-07
-4.59277e-13
-6.42513e-07
2.57398e-07
9.46983e-13
2.57606e-07
-6.42645e-07
-3.82119e-09
-6.43703e-07
2.55868e-07
-3.21736e-09
2.35847e-07
-5.75106e-07
2.99426e-09
-4.37801e-07
1.71149e-07
3.87831e-09
2.32325e-07
-6.52098e-07
-2.34817e-09
-6.39613e-07
2.55229e-07
-4.35117e-09
2.41055e-07
-5.94106e-07
-3.50561e-09
-5.46045e-07
2.15288e-07
-4.0678e-09
-5.23272e-07
1.94664e-07
-3.48263e-09
1.80869e-07
-5.29906e-07
-1.12728e-09
-5.4173e-07
1.77055e-07
1.13588e-09
1.78878e-07
-5.4897e-07
3.64747e-09
1.82626e-07
-5.47623e-07
3.65934e-09
-5.42742e-07
1.85309e-07
2.88177e-09
-5.27868e-07
1.8549e-07
1.95839e-09
1.86587e-07
-5.22093e-07
1.2572e-09
-5.0559e-07
1.88143e-07
1.39161e-09
1.91303e-07
-5.14218e-07
1.56369e-09
-5.14105e-07
1.94683e-07
9.33962e-10
1.86045e-07
-4.86593e-07
-8.06962e-10
1.904e-07
-4.83968e-07
-1.42681e-09
-4.72622e-07
1.91069e-07
9.27321e-10
2.00134e-07
-5.04902e-07
1.52533e-09
-5.46874e-07
2.05928e-07
-1.45256e-09
2.18789e-07
-5.52269e-07
-4.0547e-09
-5.44598e-07
2.20867e-07
-4.61899e-09
2.08037e-07
-5.18658e-07
-4.17202e-09
-5.21554e-07
1.91154e-07
-3.8738e-09
1.79424e-07
-5.26443e-07
-1.70943e-09
-5.38044e-07
1.74784e-07
-1.85711e-10
1.7499e-07
-5.49075e-07
9.73356e-10
1.75695e-07
-5.45452e-07
-3.21359e-11
-5.49733e-07
1.74444e-07
-1.24182e-08
1.4693e-07
-5.2789e-07
-3.30201e-07
2.97364e-07
-2.74867e-08
2.43029e-07
-5.26846e-07
1.16774e-08
-8.89008e-08
6.14106e-07
-2.59745e-08
7.23695e-07
-2.9225e-07
2.53895e-08
-2.84287e-07
2.5072e-07
4.69571e-09
-1.41465e-07
7.68353e-07
-4.11661e-09
1.88231e-07
-2.8573e-07
4.17002e-10
-7.11404e-08
8.23815e-07
-3.98464e-08
2.1212e-07
-2.33356e-07
1.38599e-08
-1.33672e-07
7.0585e-07
6.67655e-09
3.93519e-07
-1.97541e-07
8.83795e-09
-1.46901e-07
6.66569e-07
-2.54764e-08
7.61341e-07
-2.20626e-07
4.44975e-09
-1.96073e-07
3.44354e-07
2.245e-08
-1.29186e-07
7.32454e-07
-9.56051e-09
7.24165e-07
-2.62798e-07
-8.64232e-09
-1.9542e-07
4.07635e-07
-1.46605e-08
4.71518e-07
-1.75326e-07
2.66332e-08
-2.89193e-07
3.97099e-07
3.82211e-10
-9.35132e-08
8.43934e-07
-3.28937e-08
2.05137e-07
-2.41384e-07
1.34382e-08
-1.44813e-07
7.20969e-07
2.5376e-11
-1.86333e-07
4.08312e-07
-4.05879e-09
5.77837e-07
-2.20538e-07
1.09693e-09
-1.51593e-07
3.87641e-07
4.27174e-09
5.52699e-07
-1.75772e-07
-9.5308e-10
5.24033e-07
-2.04275e-07
-3.54876e-09
-1.94149e-07
4.79757e-07
-2.71423e-09
-2.06653e-07
4.72672e-07
3.3665e-09
4.12582e-07
-1.71178e-07
3.99716e-09
-1.93879e-07
5.24294e-07
1.79463e-09
5.03652e-07
-1.90945e-07
-3.47642e-09
-1.97402e-07
5.26069e-07
7.14095e-10
4.56209e-07
-2.07958e-07
2.94467e-10
-1.52605e-07
4.26031e-07
-1.80911e-09
5.57001e-07
-2.18164e-07
-1.7253e-08
-1.80247e-07
4.77763e-07
3.17562e-08
4.13872e-07
-2.6566e-07
-1.16688e-10
-9.62642e-08
8.46057e-07
-3.51495e-08
2.03007e-07
-2.43811e-07
1.6825e-08
-1.66437e-07
6.80222e-07
7.10293e-10
4.30345e-07
-2.04094e-07
-2.27619e-09
-2.1628e-07
5.65868e-07
-2.35355e-08
4.97344e-07
-1.70828e-07
-1.41722e-09
-2.64746e-07
4.56929e-07
2.2234e-08
6.44968e-07
-2.35172e-07
4.24524e-09
-2.57714e-07
3.78925e-07
1.09478e-09
-2.61277e-07
5.28177e-07
1.0146e-10
3.94594e-07
-1.78167e-07
-4.0947e-09
-2.0928e-07
5.68088e-07
-2.34565e-08
5.05633e-07
-1.53915e-07
-4.09954e-10
-2.46647e-07
4.67383e-07
2.19292e-08
6.71465e-07
-2.18539e-07
3.26889e-09
-2.3857e-07
3.96289e-07
-6.3431e-10
5.41466e-07
-2.46223e-07
-1.59192e-08
-1.63578e-07
4.7354e-07
2.95993e-08
3.57138e-07
-2.77174e-07
-1.72893e-10
-1.12942e-07
8.10768e-07
-3.48526e-08
2.1538e-07
-2.74688e-07
1.86557e-08
6.57389e-07
-1.73991e-07
1.1797e-09
-2.14504e-07
4.43298e-07
7.09051e-14
5.96168e-07
-2.09271e-07
-1.61366e-08
-1.79755e-07
4.7116e-07
2.38061e-08
3.79736e-07
-2.95787e-07
-1.9867e-09
-1.00573e-07
8.32447e-07
-3.22996e-08
2.20061e-07
-2.44351e-07
1.67726e-08
-1.52647e-07
7.29297e-07
7.30376e-09
3.7119e-07
-2.10611e-07
6.69744e-09
-2.02886e-07
5.21297e-07
-2.16354e-08
6.27439e-07
-2.22257e-07
-9.93129e-09
-2.88981e-07
4.26902e-07
2.26177e-08
6.16415e-07
-2.26173e-07
1.63729e-08
-2.53736e-07
3.38053e-07
2.53716e-09
-1.97418e-07
5.92014e-07
-2.35758e-08
6.80896e-07
-2.76762e-07
2.16717e-08
-2.83682e-07
2.70956e-07
3.86918e-09
-1.21778e-07
7.59791e-07
9.9382e-10
1.59199e-07
-2.72808e-07
-5.17478e-09
-7.046e-08
8.52153e-07
-2.94691e-08
2.72849e-07
-1.94319e-07
2.14097e-08
8.11162e-07
-7.81751e-08
-8.17445e-09
-2.27317e-07
8.47684e-07
1.19033e-08
2.32471e-07
-2.60166e-07
-1.19363e-09
-9.31021e-08
8.01889e-07
-2.82436e-08
1.97924e-07
-2.60352e-07
1.44023e-08
6.97025e-07
-1.63691e-07
-6.53077e-10
-2.08488e-07
4.21646e-07
-1.53354e-09
5.56865e-07
-2.27512e-07
-1.09275e-09
-1.72441e-07
3.62062e-07
1.25515e-10
4.75731e-07
-1.96421e-07
7.72897e-11
-2.00648e-07
4.70309e-07
1.45333e-10
4.7724e-07
-1.99728e-07
-2.34302e-10
-2.02753e-07
4.76055e-07
-6.97131e-10
4.73299e-07
-2.00638e-07
-4.79226e-10
-2.00869e-07
4.73277e-07
6.70923e-10
-2.00756e-07
4.60803e-07
1.43243e-09
4.67214e-07
-2.01112e-07
2.98715e-09
-2.01901e-07
4.67883e-07
2.37096e-08
3.74384e-07
-1.90946e-07
-1.06455e-07
6.79417e-07
-1.17506e-08
-4.28716e-08
7.87941e-07
2.31328e-09
1.09067e-07
-1.4518e-07
-1.48873e-09
-6.74426e-08
8.51208e-07
-1.89956e-09
1.79661e-07
-2.58643e-07
-3.321e-08
-1.56385e-07
7.83859e-07
1.27198e-08
-2.80024e-07
3.47519e-07
2.04704e-09
5.24095e-07
-2.09749e-07
4.07773e-10
-1.98315e-07
4.83992e-07
5.78042e-11
4.77879e-07
-1.97053e-07
1.23611e-11
-1.97324e-07
4.7629e-07
6.58531e-13
4.76129e-07
-1.97621e-07
3.36539e-13
-1.97709e-07
4.76253e-07
1.95321e-13
4.76589e-07
-1.97579e-07
2.05183e-13
-1.97274e-07
4.77042e-07
2.18591e-13
-1.96847e-07
4.77559e-07
2.33094e-13
4.78099e-07
-1.96347e-07
2.26368e-13
-1.95817e-07
4.78631e-07
-4.96255e-13
-1.95289e-07
4.79137e-07
2.80131e-13
4.79605e-07
-1.94781e-07
2.92668e-13
-1.94309e-07
4.80033e-07
3.07579e-13
4.8044e-07
-1.93899e-07
2.94706e-13
-1.93519e-07
4.80771e-07
-6.68797e-13
-1.93147e-07
4.81052e-07
-6.65344e-13
4.81322e-07
-1.92834e-07
3.70342e-13
-1.92579e-07
4.81582e-07
3.49176e-13
-1.92345e-07
4.81783e-07
-7.87954e-13
4.81948e-07
-1.92105e-07
-7.78825e-13
-1.91912e-07
4.82114e-07
3.93598e-13
-1.91763e-07
4.82283e-07
-8.76786e-13
4.82406e-07
-1.91623e-07
-8.63449e-13
-1.91465e-07
4.825e-07
4.34485e-13
4.82606e-07
-1.91342e-07
-9.65392e-13
-1.91257e-07
4.82725e-07
-9.47789e-13
4.82801e-07
-1.91171e-07
5.18987e-13
-1.91059e-07
4.82857e-07
4.8401e-13
4.82951e-07
-1.91e-07
-1.03681e-12
-1.90939e-07
4.83005e-07
5.63266e-13
4.83042e-07
-1.90848e-07
5.24257e-13
-1.90786e-07
4.83097e-07
-1.12131e-12
4.83173e-07
-1.90754e-07
6.07475e-13
-1.90712e-07
4.83208e-07
5.64411e-13
4.83233e-07
-1.90641e-07
-1.20564e-12
-1.9062e-07
4.83296e-07
5.96926e-13
4.83325e-07
-1.90586e-07
-1.26189e-12
-1.90526e-07
4.83341e-07
6.23963e-13
4.83398e-07
-1.90507e-07
-1.31795e-12
-1.90483e-07
4.83423e-07
7.10581e-13
-1.90424e-07
4.8343e-07
7.18857e-13
4.83464e-07
-1.9039e-07
7.33407e-13
-1.90382e-07
4.83516e-07
7.47961e-13
4.83537e-07
-1.90362e-07
7.62617e-13
-1.9031e-07
4.83546e-07
7.11497e-13
4.83596e-07
-1.90302e-07
-1.51465e-12
-1.90286e-07
4.83614e-07
8.13708e-13
4.83621e-07
-1.90233e-07
7.51648e-13
-1.90226e-07
4.83671e-07
-1.59902e-12
4.83691e-07
-1.9021e-07
8.57945e-13
-1.90157e-07
4.83695e-07
8.64824e-13
-1.9015e-07
4.83747e-07
8.79415e-13
4.83766e-07
-1.90132e-07
8.18702e-13
-1.90081e-07
4.83774e-07
-1.73997e-12
4.83829e-07
-1.90075e-07
9.31734e-13
-1.90053e-07
4.83846e-07
9.38103e-13
4.83859e-07
-1.9e-07
9.5274e-13
-1.8999e-07
4.83913e-07
9.67391e-13
4.83937e-07
-1.89967e-07
8.99418e-13
-1.89912e-07
4.8395e-07
-1.90969e-12
4.84012e-07
-1.899e-07
1.02076e-12
-1.89872e-07
4.84036e-07
9.39963e-13
4.84058e-07
-1.89811e-07
-1.99498e-12
-1.89796e-07
4.84123e-07
9.76618e-13
4.84156e-07
-1.8976e-07
-2.05216e-12
-1.89697e-07
4.84185e-07
1.09556e-12
-1.89669e-07
4.84255e-07
1.10053e-12
4.843e-07
-1.89628e-07
1.11554e-12
4.84335e-07
-1.89552e-07
1.03547e-12
-1.89494e-07
4.84399e-07
-2.29247e-12
4.84493e-07
-1.89457e-07
-2.21449e-12
-1.89402e-07
4.84555e-07
1.08773e-12
-1.89304e-07
4.84612e-07
-2.28377e-12
4.84729e-07
-1.89249e-07
1.11597e-12
-1.89169e-07
4.84816e-07
-2.34321e-12
-1.89054e-07
4.84906e-07
1.14478e-12
4.85051e-07
-1.88965e-07
-2.50876e-12
-1.88859e-07
4.85183e-07
-2.52946e-12
4.85322e-07
-1.887e-07
-2.45384e-12
-1.88568e-07
4.85527e-07
1.31331e-12
4.85734e-07
-1.88397e-07
1.1943e-12
-1.88169e-07
4.85971e-07
-2.70964e-12
4.86308e-07
-1.8795e-07
-2.8556e-12
-1.8767e-07
4.86679e-07
5.14197e-13
4.87145e-07
-1.87289e-07
-4.4023e-12
-1.86874e-07
4.87812e-07
1.74898e-11
4.88638e-07
-1.86293e-07
1.44712e-10
-1.85424e-07
4.89765e-07
7.02573e-10
-1.84344e-07
4.90809e-07
2.97508e-09
4.89791e-07
-1.81749e-07
3.22765e-08
-1.52676e-07
4.83864e-07
2.7901e-07
-3.92206e-07
2.89234e-06
3.95771e-06
1.06493e-06
-2.89235e-06
-3.11323e-06
2.62627e-06
-3.44973e-06
-9.07005e-07
-2.05575e-06
2.05389e-06
-4.4799e-06
-5.48191e-07
2.51375e-06
-2.22586e-06
3.35401e-06
1.87208e-06
-2.90847e-06
6.5225e-07
-3.53817e-06
-1.78541e-06
3.16362e-06
-2.07647e-06
2.09686e-06
-8.02053e-07
-4.22008e-06
1.05947e-06
2.89244e-06
3.95272e-06
-2.89258e-06
3.0721e-06
-2.45773e-06
3.41404e-06
8.87816e-07
2.72985e-06
-9.24473e-07
-3.60117e-06
-3.13588e-06
2.89234e-06
-2.89233e-06
1.06888e-06
3.96162e-06
2.34921e-06
-8.72296e-07
-2.33146e-06
-4.10576e-06
6.68384e-07
2.64286e-06
-3.48227e-06
5.12978e-06
-2.0583e-06
2.05681e-06
-5.42622e-07
-4.48115e-06
-3.41575e-06
9.65434e-07
4.7426e-06
2.64099e-06
2.01431e-06
-3.256e-06
-2.88408e-06
-1.59443e-06
2.89309e-06
-2.89321e-06
3.94492e-06
1.05029e-06
-2.84695e-06
-3.66192e-06
2.17032e-06
-7.27775e-07
3.71241e-06
3.37715e-06
6.40475e-07
-2.89602e-06
-1.74022e-06
2.69492e-06
-2.25371e-06
-3.9168e-06
3.41137e-07
-2.89231e-06
2.89244e-06
3.96566e-06
1.07272e-06
2.69776e-06
4.03823e-06
1.08201e-06
-2.77062e-06
-4.03548e-06
2.5625e-06
-5.80239e-07
-2.13165e-06
-2.89475e-06
1.03234e-06
2.89431e-06
3.93026e-06
-2.89619e-06
2.00859e-06
-3.44589e-06
-1.54417e-06
-3.00117e-06
-3.08078e-06
6.7837e-07
-1.9907e-06
2.87493e-06
2.16863e-06
-8.84264e-07
-4.22774e-06
-2.10042e-06
1.07721e-06
2.89266e-06
3.97064e-06
-2.89261e-06
-1.87762e-06
1.54992e-06
1.43164e-06
4.49305e-06
2.82481e-06
2.60874e-06
-2.55543e-06
-5.95117e-09
1.91032e-06
-2.16489e-06
2.10845e-06
-4.07239e-06
-8.23598e-07
-2.89738e-06
2.89698e-06
3.90338e-06
9.99248e-07
6.29233e-07
-2.03634e-06
-2.00023e-06
-4.62731e-06
3.78984e-06
2.89312e-06
3.97767e-06
1.08327e-06
-2.8929e-06
2.39429e-06
4.39212e-06
-1.44664e-06
-2.41717e-07
-1.79251e-06
2.2211e-06
-1.9827e-06
-3.92303e-06
-2.69492e-06
2.60709e-06
-9.87397e-07
-3.93168e-06
-1.98731e-06
-7.83127e-07
-4.24436e-06
2.00783e-06
-2.0418e-06
1.3108e-06
1.62861e-06
4.24202e-06
-2.89814e-06
9.5534e-07
2.89854e-06
3.86283e-06
6.09281e-07
-2.93882e-06
-3.42005e-06
-1.85762e-06
3.24982e-06
2.55283e-06
-3.20962e-06
6.55182e-07
4.809e-06
2.89593e-06
-1.07291e-06
-3.98214e-06
-2.8674e-06
2.89393e-06
-2.89377e-06
3.98783e-06
1.09152e-06
2.07082e-06
-3.19449e-06
-2.76405e-06
-1.74226e-06
3.72968e-06
-2.64306e-06
3.28322e-06
4.3964e-07
-2.88728e-06
2.89068e-06
3.82957e-06
9.43282e-07
-2.35413e-06
-4.1523e-06
-9.04635e-07
2.46326e-06
-2.27192e-06
-2.21024e-06
2.68991e-06
1.13051e-07
-3.45376e-06
1.0667e-06
3.95942e-06
-2.89233e-06
2.89222e-06
-3.4025e-06
2.29548e-06
-2.38546e-06
-2.0363e-06
1.10508e-06
2.6045e-06
-3.39261e-06
4.5665e-06
2.13403e-06
-2.14062e-06
-4.42797e-06
-6.00601e-07
1.87459e-06
-3.1889e-06
-3.34021e-06
-1.29092e-06
1.06227e-06
3.95523e-06
-2.89234e-06
2.89242e-06
2.896e-06
-2.89519e-06
4.00341e-06
1.10321e-06
3.27177e-06
-1.14171e-06
-2.21445e-06
-4.84499e-06
-2.89236e-06
2.89227e-06
3.96345e-06
1.07065e-06
-2.89956e-06
9.13717e-07
3.74091e-06
2.90051e-06
-2.46713e-06
-4.24459e-06
-8.74446e-07
2.54824e-06
2.17446e-06
-3.71346e-06
2.05207e-06
4.21139e-06
-5.46238e-07
-2.05697e-06
2.05656e-06
-5.43296e-07
-4.47979e-06
-2.59521e-06
-4.59034e-06
-1.05711e-06
3.23949e-06
-8.09131e-07
-2.62182e-06
3.46401e-06
-5.08609e-06
-2.89281e-06
2.89262e-06
3.94943e-06
1.05569e-06
1.95887e-06
-4.26004e-06
-8.04255e-07
-1.91797e-06
5.56148e-07
2.84503e-06
-3.497e-06
5.13468e-06
-2.0361e-06
2.09168e-06
-6.93819e-07
-4.35536e-06
-7.28617e-07
2.21234e-06
2.17651e-06
4.17244e-06
-3.50617e-06
2.18459e-06
-9.01207e-07
-4.26173e-06
-2.08558e-06
-3.26892e-06
-2.9928e-06
7.44085e-07
-1.89967e-06
2.92792e-06
9.14523e-07
3.79285e-06
2.87793e-06
-2.86241e-06
-2.90043e-06
1.12673e-06
4.03981e-06
2.90379e-06
3.07965e-06
2.98284e-06
-7.25001e-07
2.00016e-06
-2.8895e-06
-2.16619e-06
-7.91737e-07
-4.07177e-06
2.06722e-06
-2.40851e-06
2.81251e-06
3.86582e-06
1.21727e-06
-2.28542e-06
3.26072e-06
-1.1596e-06
-5.14799e-06
-2.91665e-06
1.05312e-06
3.44281e-06
3.38755e-06
-2.41859e-06
-3.92402e-06
2.25873e-06
-8.62127e-07
2.27468e-06
-8.78249e-07
-2.50601e-06
-3.58962e-06
2.4699e-06
1.32947e-06
-3.39152e-06
4.61628e-06
2.89369e-06
1.04187e-06
3.938e-06
-2.89391e-06
-3.0165e-06
-3.00862e-06
6.94615e-07
-2.00709e-06
2.83487e-06
3.22939e-06
-1.10037e-06
-2.28781e-06
-5.04864e-06
-2.30604e-06
-4.25246e-06
2.14792e-06
-6.54542e-07
-2.31083e-06
-3.99408e-06
-8.33698e-07
2.17582e-06
-2.90921e-06
-3.46471e-06
2.06906e-06
-1.40309e-06
3.97374e-06
-2.89264e-06
2.89283e-06
1.07994e-06
3.06939e-06
-6.27993e-07
2.76505e-06
2.03686e-06
-3.17958e-06
5.08855e-07
2.86734e-06
-3.51023e-06
5.10154e-06
-2.89251e-06
1.07505e-06
3.96824e-06
2.89254e-06
-2.89584e-06
1.0187e-06
2.89539e-06
3.91926e-06
2.56961e-06
-2.51923e-06
-8.29081e-07
-4.26099e-06
-2.0534e-06
-8.16983e-07
-4.17984e-06
2.03209e-06
-2.8823e-06
8.24358e-07
3.84998e-06
2.93092e-06
-1.03027e-06
3.31056e-06
-2.2905e-06
-5.26814e-06
1.17062e-06
2.92995e-06
4.13237e-06
-2.9188e-06
-1.78404e-06
1.64954e-06
1.63857e-06
4.39273e-06
2.16273e-06
-2.02647e-06
-4.02354e-06
-8.45703e-07
-5.22552e-07
2.87116e-06
3.28281e-06
-3.15388e-06
1.80323e-06
-3.2228e-06
-3.163e-06
6.69097e-07
-1.95078e-06
2.96122e-06
2.22734e-06
-2.09526e-06
-8.43412e-07
-4.28477e-06
1.79627e-06
-2.28987e-06
1.99293e-06
4.01133e-06
-2.89223e-06
1.06589e-06
3.95862e-06
2.89233e-06
-2.8437e-06
-3.32501e-06
2.55344e-06
-1.21574e-06
-7.20843e-07
-2.76042e-06
3.49796e-06
-4.99213e-06
-2.89232e-06
1.06759e-06
3.96032e-06
2.89233e-06
3.00469e-06
-2.59046e-06
3.37365e-06
1.01176e-06
-2.25344e-06
2.14151e-06
-4.12791e-06
-6.24524e-07
-2.49751e-06
2.67996e-06
-3.29061e-06
1.2192e-07
-1.89484e-06
3.95673e-06
2.89224e-06
-2.89225e-06
1.06394e-06
2.05643e-06
-2.05676e-06
-4.48115e-06
-5.44489e-07
2.80648e-06
-3.47414e-06
6.42863e-07
5.06364e-06
-6.70519e-07
2.17993e-06
4.33464e-06
2.0646e-06
-3.66982e-06
2.0965e-06
-2.13964e-06
-4.29795e-06
-7.69718e-07
-2.72215e-06
2.68594e-06
-9.99056e-07
-3.98302e-06
2.68177e-06
-9.80865e-07
-4.11643e-06
-2.63979e-06
2.45442e-06
-7.4162e-07
3.86226e-06
1.97543e-06
-3.42308e-06
2.05771e-06
-2.06144e-06
-4.4831e-06
-5.42504e-07
-2.89345e-06
2.89566e-06
3.83699e-06
9.3808e-07
-3.14028e-06
-3.51062e-06
1.93449e-06
-1.10612e-06
2.82735e-06
3.85271e-06
-2.67299e-06
9.73218e-07
2.2766e-06
-2.05577e-06
-4.45525e-06
-7.02163e-07
2.8551e-06
3.7932e-06
8.76073e-07
-2.85299e-06
-3.28563e-06
1.10562e-06
2.34956e-06
4.52354e-06
2.4083e-06
-9.11117e-07
-4.27763e-06
-2.32056e-06
2.88322e-06
-2.87001e-06
3.84456e-06
9.6674e-07
1.8463e-06
-2.57367e-06
-3.32455e-06
-8.10636e-07
-2.0226e-06
6.63341e-07
-1.8879e-06
-4.82223e-06
3.71494e-06
2.25507e-06
2.91099e-06
-2.30114e-06
9.42476e-08
1.958e-06
2.89824e-06
-2.89696e-06
1.11249e-06
4.01698e-06
2.31224e-06
-2.40663e-06
-3.98083e-06
-8.8227e-07
1.93529e-06
-3.18758e-06
-3.24909e-06
-3.39625e-07
2.89477e-06
-2.89436e-06
1.09652e-06
3.99433e-06
2.89356e-06
-2.89328e-06
1.0877e-06
3.98304e-06
-2.89238e-06
1.07164e-06
2.8924e-06
3.96452e-06
-2.58951e-06
-4.00565e-06
-9.6356e-07
2.58436e-06
-2.89224e-06
2.89235e-06
1.0698e-06
3.96256e-06
-3.14476e-06
2.38594e-06
-3.39919e-06
-7.93864e-07
2.37714e-06
-3.1047e-06
1.1171e-06
4.60493e-06
2.17009e-06
-2.61138e-06
2.66175e-06
-1.00236e-07
2.68184e-06
-1.31984e-06
-2.41291e-06
3.36613e-06
-4.51549e-06
2.05553e-06
-2.05631e-06
-4.47886e-06
-5.44615e-07
2.89238e-06
-2.89246e-06
1.07378e-06
3.96682e-06
2.66083e-06
-1.20827e-06
-3.83778e-06
-2.62707e-06
2.89787e-06
9.8266e-07
3.88915e-06
-2.89828e-06
-2.47078e-06
-8.89793e-07
3.31035e-06
-5.23566e-06
-2.01629e-06
6.29242e-07
-1.9419e-06
-4.78098e-06
3.93368e-06
-2.66457e-06
-2.74165e-06
2.49731e-06
-1.82181e-08
-1.9193e-06
1.06095e-06
2.89247e-06
3.95405e-06
-2.8925e-06
2.05005e-06
-3.84139e-06
-3.60938e-06
2.68125e-06
-2.18249e-06
3.33097e-06
1.71636e-06
2.89289e-06
-2.89288e-06
3.94744e-06
1.05331e-06
1.05784e-06
2.89262e-06
3.95129e-06
-2.89255e-06
2.14086e-06
-2.06082e-06
-4.48441e-06
-5.48342e-07
-1.91673e-06
2.63011e-06
3.28981e-06
1.46621e-06
2.03237e-06
-1.9637e-06
-7.94028e-07
-4.2884e-06
-2.30243e-06
-2.66381e-06
2.26871e-06
-1.01827e-07
-2.03558e-06
2.89323e-06
-2.89339e-06
1.04658e-06
3.94181e-06
-2.19298e-06
3.08868e-06
2.77475e-06
1.79715e-06
1.97038e-06
-4.17526e-06
-8.10252e-07
-2.00692e-06
2.0646e-06
-1.96158e-06
-5.3465e-07
-4.55678e-06
1.15159e-06
2.35599e-06
-3.28114e-06
4.72771e-06
2.51102e-06
3.0533e-06
-2.51789e-06
-4.68705e-08
1.86869e-06
-2.06797e-06
2.09644e-06
-7.66787e-07
-4.2604e-06
2.13746e-06
-2.96427e-06
-1.09302e-06
-2.84141e-06
2.92768e-06
4.04427e-06
2.85746e-07
-3.81172e-06
-2.6569e-06
-4.72042e-07
-4.16515e-06
3.20732e-06
-2.99408e-06
1.38284e-06
3.82421e-06
3.01179e-06
1.06537e-06
3.95811e-06
-2.89278e-06
1.06494e-06
2.89275e-06
3.95816e-06
3.95773e-06
1.06447e-06
-2.89278e-06
-3.95728e-06
-2.89325e-06
1.0645e-06
3.9582e-06
2.89322e-06
3.95776e-06
1.06401e-06
-3.95726e-06
-2.89329e-06
-2.89374e-06
1.06406e-06
2.89369e-06
3.95824e-06
3.95781e-06
1.06357e-06
-2.89381e-06
-3.95729e-06
-2.89424e-06
1.06364e-06
3.9583e-06
2.89417e-06
3.95789e-06
1.06314e-06
-3.95737e-06
-2.89434e-06
-2.89476e-06
1.06324e-06
2.89467e-06
3.95839e-06
3.95799e-06
1.06272e-06
-2.89487e-06
-3.95746e-06
-2.89528e-06
1.06284e-06
3.9585e-06
2.89516e-06
3.95813e-06
-3.9576e-06
-2.89542e-06
1.06232e-06
2.89565e-06
3.95864e-06
1.06249e-06
-2.8958e-06
1.06299e-06
3.95899e-06
2.89553e-06
-1.06335e-06
-2.89616e-06
1.06264e-06
2.89601e-06
3.95913e-06
3.9588e-06
1.06214e-06
-2.89633e-06
-3.95829e-06
-2.89665e-06
1.06233e-06
3.95928e-06
2.89648e-06
3.95899e-06
1.06184e-06
-2.89686e-06
-3.95848e-06
-2.89715e-06
1.06205e-06
3.95946e-06
2.89695e-06
3.9592e-06
1.06157e-06
-3.95869e-06
-2.89738e-06
-2.89764e-06
1.0618e-06
2.89742e-06
3.95967e-06
3.95944e-06
1.06132e-06
-2.89789e-06
-3.95894e-06
-2.89812e-06
1.06159e-06
3.9599e-06
2.89787e-06
3.95971e-06
1.06112e-06
-3.95922e-06
-2.89841e-06
-2.89858e-06
1.06141e-06
2.89832e-06
3.96015e-06
3.96e-06
1.06096e-06
-2.89889e-06
-3.95952e-06
-2.89903e-06
1.06127e-06
3.96042e-06
2.89874e-06
3.96031e-06
-3.95986e-06
-2.89937e-06
1.06084e-06
2.89915e-06
3.96072e-06
1.06118e-06
-2.89946e-06
1.06157e-06
3.96081e-06
-1.06168e-06
2.89887e-06
2.89925e-06
3.96108e-06
1.06149e-06
-2.89954e-06
1.06184e-06
3.96116e-06
2.89899e-06
-1.06193e-06
2.89932e-06
3.96141e-06
-2.89959e-06
1.06178e-06
1.06209e-06
3.96147e-06
-1.06217e-06
2.89909e-06
2.89939e-06
3.9617e-06
1.06204e-06
-2.89963e-06
1.06231e-06
3.96175e-06
-1.06238e-06
2.89919e-06
2.89945e-06
3.96195e-06
-2.89966e-06
1.06226e-06
1.0625e-06
3.962e-06
2.89927e-06
-1.06257e-06
2.8995e-06
3.96217e-06
1.06247e-06
-2.89968e-06
1.06267e-06
3.96221e-06
-1.06273e-06
2.89934e-06
2.89955e-06
3.96236e-06
-2.89971e-06
1.06264e-06
1.06282e-06
3.9624e-06
2.89941e-06
-1.06287e-06
2.89959e-06
3.96252e-06
1.06279e-06
-2.89972e-06
1.06294e-06
3.96256e-06
-1.06299e-06
2.89948e-06
2.89962e-06
3.96266e-06
-2.89973e-06
1.06291e-06
1.06304e-06
3.96269e-06
2.89953e-06
-1.06309e-06
2.89966e-06
3.96277e-06
1.06302e-06
-2.89974e-06
1.06312e-06
-1.06316e-06
2.89959e-06
3.96281e-06
-2.89976e-06
1.06309e-06
3.96286e-06
2.8997e-06
3.96285e-06
1.06301e-06
-2.89984e-06
-3.96276e-06
2.89977e-06
3.96291e-06
-2.89983e-06
1.06309e-06
1.06314e-06
3.96293e-06
2.89973e-06
-1.06316e-06
2.89978e-06
3.96296e-06
1.06314e-06
-2.89983e-06
1.06318e-06
-1.0632e-06
2.89976e-06
3.96297e-06
-2.89983e-06
1.06317e-06
3.96298e-06
2.89981e-06
3.96299e-06
-2.89986e-06
1.06315e-06
-3.96297e-06
2.89982e-06
3.963e-06
1.06318e-06
-2.89984e-06
1.06317e-06
3.96299e-06
-1.06318e-06
2.89982e-06
-2.89982e-06
1.06318e-06
3.96298e-06
2.89983e-06
3.963e-06
-2.89983e-06
1.0632e-06
-3.96301e-06
2.89981e-06
3.96297e-06
1.0632e-06
-2.8998e-06
1.06316e-06
3.96297e-06
2.89983e-06
-1.06317e-06
-2.89977e-06
1.06318e-06
2.89979e-06
3.96293e-06
3.96295e-06
1.06324e-06
-3.963e-06
-2.89976e-06
-2.89972e-06
1.0632e-06
3.9629e-06
2.89975e-06
3.96293e-06
1.06328e-06
-2.89969e-06
-3.96299e-06
2.89968e-06
3.96285e-06
-2.89964e-06
1.06325e-06
1.06316e-06
3.96282e-06
2.89973e-06
-1.06314e-06
2.89965e-06
3.96276e-06
1.0632e-06
-2.8996e-06
1.0631e-06
-1.06309e-06
2.89972e-06
3.96275e-06
-2.89957e-06
1.06313e-06
3.96266e-06
2.89964e-06
3.9627e-06
-3.9628e-06
1.06323e-06
-2.8995e-06
2.89954e-06
3.96259e-06
1.06317e-06
-2.89946e-06
1.06306e-06
-1.06304e-06
3.96256e-06
2.89961e-06
-2.89942e-06
1.06309e-06
3.96247e-06
2.89951e-06
3.9625e-06
1.06321e-06
-2.89934e-06
-3.96263e-06
2.89939e-06
3.96238e-06
1.06312e-06
-2.89931e-06
1.06298e-06
3.96236e-06
-1.06296e-06
2.89949e-06
-2.89926e-06
1.06302e-06
3.96225e-06
2.89936e-06
3.96228e-06
-3.96241e-06
1.06316e-06
-2.89916e-06
2.89924e-06
3.96214e-06
1.06304e-06
-2.89913e-06
1.0629e-06
3.96211e-06
2.89934e-06
-1.06288e-06
-2.89909e-06
1.06292e-06
2.89921e-06
3.962e-06
3.96202e-06
1.06308e-06
-2.89898e-06
-3.96218e-06
-2.89894e-06
1.06296e-06
3.96187e-06
2.89906e-06
3.9619e-06
-3.96205e-06
-2.89881e-06
1.06312e-06
2.89891e-06
3.96174e-06
1.06299e-06
-2.89878e-06
1.06283e-06
3.96171e-06
-1.0628e-06
2.89904e-06
-2.89875e-06
1.06285e-06
3.96158e-06
2.89889e-06
3.9616e-06
1.06302e-06
-2.89861e-06
-3.96177e-06
2.89872e-06
3.96144e-06
-2.89858e-06
1.06288e-06
1.06271e-06
3.96141e-06
2.89886e-06
-1.06269e-06
2.8987e-06
3.96127e-06
1.06274e-06
-2.89855e-06
1.06257e-06
-1.06255e-06
2.89884e-06
3.96125e-06
-2.89853e-06
1.06258e-06
3.9611e-06
2.89869e-06
3.96112e-06
-3.96129e-06
1.06276e-06
-2.89838e-06
2.89851e-06
3.96094e-06
1.06261e-06
-2.89836e-06
1.06244e-06
-1.06242e-06
2.89866e-06
3.96093e-06
-2.89834e-06
1.06245e-06
3.96077e-06
2.8985e-06
3.96079e-06
1.06262e-06
-2.89818e-06
-3.96097e-06
2.89833e-06
3.96062e-06
1.06247e-06
-2.89817e-06
1.06228e-06
3.96061e-06
-1.06227e-06
2.89848e-06
-2.89815e-06
1.0623e-06
3.96044e-06
2.89831e-06
3.96045e-06
1.06248e-06
-2.89799e-06
-3.96063e-06
-2.89798e-06
2.89813e-06
3.96028e-06
1.06232e-06
-3.96047e-06
-2.89781e-06
1.06249e-06
3.96029e-06
1.06214e-06
3.96027e-06
2.8983e-06
-1.06213e-06
2.89813e-06
3.9601e-06
1.06215e-06
-2.89796e-06
1.06198e-06
3.96009e-06
-1.06196e-06
2.89829e-06
2.89812e-06
3.95993e-06
1.06199e-06
-2.89795e-06
1.06181e-06
3.95992e-06
2.89828e-06
-1.0618e-06
2.89811e-06
3.95975e-06
-2.89794e-06
1.06182e-06
1.06165e-06
3.95975e-06
-1.06164e-06
2.89827e-06
2.8981e-06
3.95958e-06
1.06165e-06
-2.89794e-06
1.06148e-06
3.95957e-06
2.89827e-06
-1.06147e-06
2.89809e-06
3.95941e-06
-2.89792e-06
1.06149e-06
1.06132e-06
3.9594e-06
-1.06131e-06
2.89825e-06
-3.96103e-06
3.96137e-06
-2.89989e-06
1.06146e-06
2.89809e-06
3.95923e-06
1.06133e-06
-2.89792e-06
1.06115e-06
3.95923e-06
2.89825e-06