/*--------------------------------*- C++ -*----------------------------------*\
  =========                 |
  \\      /  F ield         | OpenFOAM: The Open Source CFD Toolbox
   \\    /   O peration     | Website:  https://openfoam.org
    \\  /    A nd           | Version:  6
     \\/     M anipulation  |
\*---------------------------------------------------------------------------*/
FoamFile
{
    version     2.0;
    format      ascii;
    class       volVectorField;
    location    "172800";
    object      Uw;
}
// * * * * * * * * * * * * * * * * * * * * * * * * * * * * * * * * * * * * * //

dimensions      [0 1 -1 0 0 0 0];

internalField   nonuniform List<vector> 
11830
(
(-4.74382e-09 -1.39677e-09 -2.79543e-32)
(3.57317e-09 1.67252e-09 3.13766e-26)
(-3.36073e-09 -3.11978e-09 1.32059e-33)
(2.89313e-09 2.03667e-09 0)
(-3.70762e-08 -1.77034e-08 1.21035e-25)
(-5.60802e-08 2.4588e-08 5.18142e-26)
(-2.92183e-08 -7.23988e-10 -2.90503e-25)
(-6.09591e-08 2.8731e-08 4.14506e-26)
(-2.19688e-08 2.27375e-09 1.30055e-25)
(-4.23953e-08 2.65202e-08 9.2261e-26)
(-3.72806e-08 1.0256e-08 -3.421e-25)
(-4.99309e-08 2.11013e-08 0)
(-5.72268e-08 2.83121e-08 -2.6446e-25)
(-2.37144e-08 1.07987e-08 -5.06354e-31)
(-4.56097e-08 2.27651e-08 2.60372e-31)
(-4.20372e-08 1.3851e-08 2.64308e-31)
(-3.85802e-08 5.97713e-09 -5.61993e-28)
(-6.49475e-08 2.2622e-08 6.57914e-31)
(-2.90854e-08 -1.27593e-09 -1.02933e-25)
(-5.89922e-08 2.85041e-08 0)
(-2.23925e-08 3.39526e-09 1.38861e-25)
(-4.20898e-08 2.76692e-08 -4.8418e-25)
(-3.94645e-08 1.34921e-08 0)
(-3.84243e-08 5.51023e-09 0)
(-6.57686e-08 2.56437e-08 -8.88707e-26)
(-2.6116e-08 2.03362e-09 -4.87792e-26)
(-4.91447e-08 2.37162e-08 -4.24069e-25)
(-4.83142e-08 1.3781e-08 -4.90964e-25)
(-3.68833e-08 1.3412e-08 0)
(-3.4475e-08 1.64926e-08 5.98307e-31)
(-3.70474e-08 3.26851e-09 2.00898e-31)
(-6.60305e-08 2.23537e-08 -4.12691e-31)
(-2.9791e-08 -5.03872e-10 6.60615e-26)
(-5.88832e-08 2.81105e-08 -5.22271e-25)
(-2.20525e-08 1.08398e-09 -9.10967e-32)
(-4.15717e-08 2.77673e-08 -4.78688e-25)
(-3.94224e-08 1.48514e-08 -4.26935e-25)
(-3.6889e-08 6.36171e-09 1.90339e-25)
(-5.69687e-08 2.34494e-08 -5.27137e-25)
(-2.54987e-08 3.96264e-10 0)
(-4.22729e-08 2.27167e-08 4.92381e-25)
(-4.10385e-08 1.34437e-08 0)
(-3.80598e-08 5.43217e-09 1.91638e-25)
(-6.65363e-08 2.55837e-08 5.9628e-25)
(-2.92427e-08 1.72146e-09 -4.67277e-31)
(-6.08231e-08 2.81142e-08 -5.41857e-26)
(-2.27883e-08 2.36897e-09 1.28901e-25)
(-4.23812e-08 2.58209e-08 -4.69614e-31)
(-3.96796e-08 1.46187e-08 2.67627e-31)
(-3.6355e-08 2.58201e-09 -3.69261e-31)
(-6.41721e-08 1.88496e-08 6.94757e-25)
(-2.77311e-08 -2.38552e-09 0)
(-4.22186e-08 1.91434e-08 0)
(-3.81548e-08 6.53521e-09 3.85947e-25)
(-4.49916e-08 1.38531e-08 2.54988e-25)
(-3.20156e-08 1.20291e-08 0)
(-4.08213e-08 1.935e-08 0)
(-2.98423e-08 1.93374e-08 -4.18906e-25)
(-3.13657e-08 1.42505e-08 1.68027e-25)
(-4.83651e-08 2.1015e-08 5.44764e-31)
(-4.20012e-08 1.15863e-08 -4.08588e-25)
(-4.71884e-08 1.52799e-08 4.68189e-25)
(-3.43267e-08 7.80226e-09 1.91597e-25)
(-4.30367e-08 1.53644e-08 6.48727e-25)
(-4.45611e-08 1.41863e-08 2.08098e-25)
(-4.34806e-08 1.56146e-08 -3.36578e-31)
(-3.90685e-08 1.27789e-08 2.03873e-25)
(-3.38354e-08 1.22815e-08 3.71034e-25)
(-4.36996e-08 1.59346e-08 -3.39906e-31)
(-3.30179e-08 1.61374e-08 -2.54102e-31)
(-3.4245e-08 1.17462e-08 -2.18977e-31)
(-5.38028e-08 2.19054e-08 -3.36404e-32)
(-4.90868e-08 1.26171e-08 -2.59369e-25)
(-3.72826e-08 1.24686e-08 0)
(-3.42126e-08 1.55775e-08 5.8393e-31)
(-3.89715e-08 5.59721e-09 2.05221e-25)
(-6.50736e-08 2.28354e-08 -2.10215e-31)
(-3.0479e-08 -1.51527e-10 1.76502e-25)
(-5.9172e-08 2.78129e-08 5.44979e-25)
(-2.15199e-08 1.0588e-09 -1.98394e-25)
(-4.1968e-08 2.62087e-08 9.39689e-26)
(-3.70548e-08 9.85164e-09 -3.39663e-25)
(-5.02722e-08 2.05597e-08 1.69085e-25)
(-5.84802e-08 2.7031e-08 -6.73252e-25)
(-2.47467e-08 9.82409e-09 1.95968e-31)
(-4.62237e-08 2.25415e-08 -1.14552e-25)
(-3.88985e-08 9.7174e-09 7.85759e-31)
(-4.674e-08 1.7296e-08 -3.514e-31)
(-3.71267e-08 1.55093e-08 -9.13457e-31)
(-3.56198e-08 8.0349e-09 -1.60948e-26)
(-4.93046e-08 1.64337e-08 0)
(-6.77768e-08 1.28866e-08 6.27369e-25)
(-3.89926e-08 9.26572e-09 -3.43153e-31)
(-3.47153e-08 1.45119e-08 -2.91078e-31)
(-3.97617e-08 6.11886e-09 0)
(-6.55183e-08 2.30839e-08 5.58973e-25)
(-3.03576e-08 -1.27262e-10 -2.58264e-31)
(-6.47418e-08 2.80586e-08 -7.14288e-31)
(-2.16354e-08 2.31238e-09 2.99639e-25)
(-4.2191e-08 2.56431e-08 6.01328e-25)
(-3.66428e-08 1.05911e-08 -3.47598e-25)
(-4.02765e-08 1.2256e-08 -8.43612e-31)
(-3.72371e-08 2.65106e-08 -1.3032e-25)
(3.5918e-08 -4.06097e-08 0)
(8.21137e-09 -3.28155e-08 0)
(2.21324e-08 -5.21821e-08 -2.32004e-31)
(1.64016e-08 -5.1054e-08 1.42656e-25)
(1.64039e-08 -5.25907e-08 0)
(1.62674e-08 -5.22102e-08 3.06578e-25)
(1.66499e-08 -5.12424e-08 0)
(1.6873e-08 -4.94498e-08 -4.49335e-25)
(1.62057e-08 -4.73806e-08 4.51878e-25)
(1.53758e-08 -4.61548e-08 -1.91779e-31)
(1.44749e-08 -4.58414e-08 1.98771e-31)
(1.43088e-08 -4.72664e-08 2.06226e-31)
(1.4562e-08 -4.90049e-08 4.44797e-25)
(1.5526e-08 -5.1302e-08 1.41276e-25)
(1.58928e-08 -5.20214e-08 -4.66859e-31)
(1.65937e-08 -5.22836e-08 -2.33258e-31)
(1.73554e-08 -5.19927e-08 4.46512e-25)
(1.78565e-08 -5.21445e-08 2.33916e-31)
(1.78768e-08 -5.21548e-08 1.25569e-25)
(1.76987e-08 -5.20408e-08 0)
(1.68071e-08 -5.14857e-08 6.11153e-25)
(1.54163e-08 -5.0104e-08 0)
(1.33335e-08 -4.65072e-08 -4.569e-31)
(-4.83813e-09 -5.837e-08 -4.20432e-31)
(2.05877e-08 -4.9303e-08 1.08596e-31)
(3.51771e-08 -5.16305e-08 0)
(1.69625e-08 -4.76252e-08 -2.09464e-31)
(1.85389e-08 -5.12474e-08 3.14054e-25)
(1.93961e-08 -5.11985e-08 -2.11868e-31)
(1.79906e-08 -5.06612e-08 -2.05768e-25)
(1.76975e-08 -5.20335e-08 7.61705e-25)
(1.77881e-08 -5.22943e-08 0)
(1.78699e-08 -5.19569e-08 -3.97166e-31)
(1.788e-08 -5.1986e-08 5.60014e-25)
(1.79862e-08 -5.14362e-08 2.03458e-31)
(1.61981e-08 -4.90251e-08 -2.42464e-25)
(1.76335e-08 -5.1655e-08 0)
(1.65827e-08 -5.03785e-08 -4.95469e-25)
(1.7124e-08 -5.14963e-08 2.20371e-31)
(1.66464e-08 -5.07806e-08 3.03227e-25)
(1.68718e-08 -5.12496e-08 0)
(1.65658e-08 -5.06626e-08 2.22427e-31)
(1.69876e-08 -5.17555e-08 -4.60912e-25)
(1.75495e-08 -5.26475e-08 1.4159e-25)
(1.77719e-08 -5.20116e-08 4.55835e-25)
(1.82572e-08 -5.25354e-08 -1.19171e-25)
(2.03277e-08 -5.4415e-08 1.0454e-25)
(2.24151e-08 -5.89308e-08 0)
(2.00762e-08 -5.61881e-08 0)
(1.72898e-08 -5.19577e-08 0)
(1.78859e-08 -5.19494e-08 2.73039e-25)
(1.79319e-08 -5.19001e-08 -1.98369e-31)
(1.79175e-08 -5.18936e-08 -1.98344e-31)
(1.75349e-08 -5.07851e-08 -1.94107e-31)
(1.7647e-08 -5.03189e-08 0)
(1.56653e-08 -4.65463e-08 -2.31566e-25)
(1.66877e-08 -4.769e-08 0)
(1.83206e-08 -4.93168e-08 -1.72884e-25)
(1.79143e-08 -4.97649e-08 -2.02343e-25)
(1.80354e-08 -5.19921e-08 2.42737e-25)
(1.7705e-08 -5.22768e-08 1.99807e-31)
(1.78691e-08 -5.19508e-08 3.97121e-31)
(1.78749e-08 -5.19593e-08 9.92957e-32)
(1.78769e-08 -5.19667e-08 -3.89516e-38)
(1.78733e-08 -5.19864e-08 -5.59963e-25)
(1.80031e-08 -5.1506e-08 1.00961e-31)
(1.63915e-08 -4.76529e-08 9.58891e-32)
(1.23569e-08 -3.78565e-08 0)
(1.84671e-08 -5.39243e-08 0)
(1.78429e-08 -5.18508e-08 0)
(1.68429e-08 -4.85494e-08 -2.48158e-25)
(1.56964e-08 -4.60252e-08 0)
(1.5579e-08 -4.52286e-08 -2.72886e-25)
(1.65225e-08 -4.66301e-08 1.60937e-25)
(1.69986e-08 -4.94094e-08 -1.12163e-31)
(1.68346e-08 -5.17152e-08 -1.41452e-25)
(1.61593e-08 -5.20358e-08 1.48604e-25)
(1.56668e-08 -5.02105e-08 1.61673e-25)
(1.52659e-08 -4.69562e-08 -1.74257e-25)
(1.5119e-08 -4.47888e-08 -1.86081e-25)
(1.45335e-08 -4.26534e-08 -4.31416e-25)
(1.48029e-08 -4.27199e-08 -1.98608e-25)
(1.46579e-08 -4.23562e-08 2.04313e-25)
(1.37962e-08 -3.95581e-08 1.9799e-25)
(1.36116e-08 -3.90454e-08 3.7634e-32)
(1.32007e-08 -3.84501e-08 3.72521e-32)
(1.42171e-08 -4.16254e-08 0)
(1.552e-08 -4.43796e-08 2.20675e-25)
(1.548e-08 -4.45343e-08 4.80946e-25)
(1.52852e-08 -4.41859e-08 2.30593e-25)
(1.49033e-08 -4.32888e-08 -2.07716e-25)
(1.56974e-08 -4.44883e-08 2.37308e-32)
(1.64782e-08 -4.61254e-08 2.54577e-32)
(1.70278e-08 -4.90383e-08 4.54883e-25)
(1.71178e-08 -5.1798e-08 -4.54885e-25)
(1.66899e-08 -5.24008e-08 0)
(1.676e-08 -5.22176e-08 -3.17664e-25)
(1.71262e-08 -4.67161e-08 0)
(-5.03867e-11 -4.69059e-08 -2.80204e-25)
(-4.01458e-08 -1.31134e-08 0)
(-4.38588e-08 2.15716e-08 0)
(-6.87564e-08 1.99081e-08 -1.37284e-33)
(-3.08841e-08 2.15334e-10 -6.03304e-34)
(-6.50056e-08 2.01275e-08 0)
(-3.14881e-08 -1.92986e-09 0)
(-6.09886e-08 2.83273e-08 4.18799e-26)
(-2.34188e-08 2.40049e-09 2.06722e-25)
(-4.05628e-08 2.57543e-08 0)
(-3.55968e-08 9.4949e-09 0)
(-5.06903e-08 2.21167e-08 -5.74891e-25)
(-5.91661e-08 2.63726e-08 2.60397e-25)
(-2.68447e-08 9.18828e-09 5.2276e-34)
(-5.25802e-08 2.32662e-08 0)
(-7.14405e-08 2.04792e-08 0)
(-3.69215e-08 1.12536e-08 0)
(-3.53895e-08 1.40479e-08 0)
(-3.88786e-08 6.00607e-09 -8.72835e-34)
(-6.47106e-08 2.70601e-08 -1.85972e-33)
(-2.39613e-08 1.53703e-09 0)
(-4.27263e-08 2.56227e-08 1.04493e-25)
(-3.58027e-08 1.03406e-08 4.65408e-34)
(-4.43842e-08 1.70376e-08 -2.51739e-25)
(-2.93367e-08 1.12959e-08 -8.46206e-34)
(-4.17128e-08 1.71287e-08 2.00691e-25)
(-4.30059e-08 1.47813e-08 2.15911e-25)
(-3.87812e-08 1.34474e-08 -2.18318e-25)
(-3.75836e-08 1.27904e-08 5.69991e-34)
(-3.22998e-08 1.11897e-08 0)
(-4.1587e-08 1.48759e-08 5.92592e-34)
(-4.16094e-08 1.42216e-08 6.08152e-34)
(-4.29373e-08 1.52078e-08 1.3523e-33)
(-3.85324e-08 1.19028e-08 2.33907e-33)
(-3.37309e-08 1.23758e-08 1.00541e-33)
(-4.51369e-08 1.59544e-08 2.28391e-25)
(-3.47376e-08 1.42356e-08 5.25208e-34)
(-3.81557e-08 7.70525e-09 2.13848e-25)
(-6.54059e-08 2.67697e-08 -5.54667e-25)
(-2.37354e-08 1.27161e-09 -1.95457e-25)
(-4.22546e-08 2.27956e-08 0)
(-3.81002e-08 1.01302e-08 2.11475e-25)
(-4.42165e-08 1.65217e-08 4.97586e-25)
(-3.30533e-08 1.59056e-08 -4.98127e-34)
(-3.3448e-08 1.07616e-08 -2.42629e-25)
(-4.73253e-08 1.62416e-08 -6.39707e-25)
(-3.86103e-08 4.50618e-09 1.95295e-25)
(-4.63155e-08 1.1605e-08 7.88687e-25)
(-3.32251e-08 9.88713e-09 -3.65547e-25)
(-4.297e-08 1.71586e-08 -5.01001e-25)
(-3.14323e-08 1.73022e-08 -6.61996e-34)
(-3.25386e-08 1.22661e-08 -2.40851e-25)
(-4.74653e-08 1.84621e-08 -1.25232e-25)
(-3.86394e-08 6.48203e-09 -2.22746e-25)
(-4.54378e-08 1.33654e-08 5.13313e-25)
(-3.4708e-08 1.42646e-08 0)
(-3.60927e-08 4.66904e-09 0)
(-6.34492e-08 2.45688e-08 5.08388e-34)
(-2.58896e-08 4.44903e-10 -1.44373e-25)
(-4.17983e-08 2.11849e-08 3.32997e-33)
(-3.94966e-08 1.00814e-08 -2.24939e-25)
(-4.72036e-08 1.76856e-08 -7.1048e-34)
(-3.61768e-08 1.37103e-08 4.22719e-25)
(-3.66194e-08 5.38828e-09 -1.97425e-25)
(-5.73376e-08 2.80495e-08 1.58204e-33)
(-2.25151e-08 1.90967e-09 -2.09864e-25)
(-4.2097e-08 2.53098e-08 4.86829e-25)
(-3.55815e-08 7.12317e-09 -1.91119e-25)
(-4.47322e-08 1.35831e-08 4.54569e-25)
(-4.97016e-08 1.87885e-08 -5.761e-25)
(-3.50785e-08 8.70112e-09 -4.46507e-34)
(-4.61609e-08 1.54391e-08 -1.29008e-33)
(-3.89137e-08 2.16358e-09 9.80703e-34)
(-5.6863e-08 1.50087e-08 1.70098e-33)
(-6.4802e-08 1.93325e-08 0)
(-3.22373e-08 1.13107e-09 0)
(-6.29294e-08 2.14434e-08 0)
(-2.93474e-08 -2.7619e-09 0)
(-5.80818e-08 3.15343e-08 6.30174e-26)
(-2.21703e-08 7.49558e-09 0)
(-4.28466e-08 3.17505e-08 4.5175e-25)
(-7.481e-08 2.57995e-08 -6.63112e-34)
(-3.10615e-08 1.05841e-09 -2.73973e-34)
(-6.12099e-08 2.60136e-08 0)
(-2.53912e-08 3.5609e-10 0)
(-4.46355e-08 2.3175e-08 0)
(-3.9009e-08 9.70366e-09 0)
(-4.62801e-08 1.52923e-08 -4.88393e-25)
(-3.09407e-08 8.96016e-09 4.97618e-25)
(-3.87128e-08 1.29583e-08 -4.15162e-25)
(-3.88436e-08 1.25029e-08 2.10197e-25)
(-3.93042e-08 1.28581e-08 4.15303e-25)
(-3.93851e-08 1.26858e-08 6.28369e-25)
(-3.88886e-08 1.26846e-08 -2.10345e-25)
(-3.87988e-08 1.26539e-08 1.16268e-33)
(-3.82473e-08 1.20173e-08 -5.64453e-34)
(-3.90077e-08 1.21778e-08 -5.77878e-34)
(-3.96815e-08 1.21452e-08 0)
(-3.61127e-08 8.5401e-09 1.27941e-25)
(-3.81716e-08 2.74254e-08 1.49061e-25)
(3.49895e-08 -3.24037e-08 5.00446e-25)
(5.00668e-10 -1.77963e-08 -1.65571e-25)
(3.0889e-08 -6.04946e-08 -5.68863e-25)
(-9.34503e-10 -3.0213e-08 -1.70488e-25)
(1.99673e-08 -6.93612e-08 1.02266e-25)
(3.34308e-09 -3.6972e-08 1.81798e-32)
(1.45644e-08 -4.07634e-08 2.18872e-25)
(1.32581e-08 -3.91313e-08 0)
(1.3035e-08 -3.89231e-08 0)
(1.29494e-08 -3.88912e-08 -4.15656e-25)
(1.29281e-08 -3.89053e-08 -3.7179e-32)
(1.29299e-08 -3.89189e-08 -3.71882e-32)
(1.29515e-08 -3.89309e-08 -7.43992e-32)
(1.29867e-08 -3.89394e-08 -3.72078e-32)
(1.30305e-08 -3.89446e-08 4.1661e-25)
(1.30788e-08 -3.89469e-08 2.09667e-25)
(1.31281e-08 -3.8947e-08 0)
(1.31761e-08 -3.89458e-08 0)
(1.32214e-08 -3.89435e-08 0)
(1.32632e-08 -3.89409e-08 -3.72093e-32)
(1.33011e-08 -3.89407e-08 -1.11627e-31)
(1.33341e-08 -3.89379e-08 -7.44127e-32)
(1.33644e-08 -3.89327e-08 0)
(1.33915e-08 -3.89303e-08 2.04707e-25)
(1.34154e-08 -3.89305e-08 2.04518e-25)
(1.34356e-08 -3.89285e-08 0)
(1.34543e-08 -3.89243e-08 1.48772e-31)
(1.3471e-08 -3.89228e-08 1.48767e-31)
(1.34858e-08 -3.89239e-08 0)
(1.3498e-08 -3.89229e-08 0)
(1.35097e-08 -3.89194e-08 0)
(1.35203e-08 -3.89183e-08 0)
(1.35298e-08 -3.89203e-08 1.48756e-31)
(1.35373e-08 -3.89198e-08 1.48755e-31)
(1.35451e-08 -3.89164e-08 7.43719e-32)
(1.35522e-08 -3.89183e-08 2.36081e-38)
(1.35575e-08 -3.89181e-08 -7.43749e-32)
(1.35635e-08 -3.89149e-08 0)
(1.35689e-08 -3.89143e-08 0)
(1.35739e-08 -3.89171e-08 1.48744e-31)
(1.35775e-08 -3.89166e-08 2.97487e-31)
(1.35819e-08 -3.89138e-08 4.20784e-25)
(1.35859e-08 -3.89164e-08 2.03037e-25)
(1.35888e-08 -3.89161e-08 -4.46223e-31)
(1.35923e-08 -3.89136e-08 -2.02963e-25)
(1.35959e-08 -3.89158e-08 -1.48742e-31)
(1.35981e-08 -3.89158e-08 -1.48741e-31)
(1.36012e-08 -3.89129e-08 -2.02887e-25)
(1.36043e-08 -3.89126e-08 0)
(1.36072e-08 -3.89152e-08 0)
(1.36091e-08 -3.89152e-08 0)
(1.36119e-08 -3.89127e-08 -4.21015e-25)
(1.36146e-08 -3.89152e-08 0)
(1.36161e-08 -3.89155e-08 0)
(1.36189e-08 -3.89128e-08 1.4873e-31)
(1.36216e-08 -3.89151e-08 1.48739e-31)
(1.36232e-08 -3.89155e-08 0)
(1.36259e-08 -3.89128e-08 4.21126e-25)
(1.36286e-08 -3.89151e-08 -1.48739e-31)
(1.36304e-08 -3.89152e-08 0)
(1.36331e-08 -3.89127e-08 0)
(1.36358e-08 -3.89157e-08 2.97476e-31)
(1.36377e-08 -3.89155e-08 2.97475e-31)
(1.36408e-08 -3.89129e-08 0)
(1.36438e-08 -3.89154e-08 0)
(1.36459e-08 -3.89155e-08 0)
(1.36491e-08 -3.89131e-08 -4.21317e-25)
(1.36525e-08 -3.89162e-08 0)
(1.36549e-08 -3.8916e-08 0)
(1.36588e-08 -3.89135e-08 0)
(1.36625e-08 -3.89166e-08 4.21449e-25)
(1.36657e-08 -3.89165e-08 2.02398e-25)
(1.367e-08 -3.89145e-08 0)
(1.36745e-08 -3.89169e-08 0)
(1.36785e-08 -3.89169e-08 0)
(1.36837e-08 -3.89145e-08 2.02242e-25)
(1.36893e-08 -3.89148e-08 1.48738e-31)
(1.36954e-08 -3.89185e-08 0)
(1.37008e-08 -3.89192e-08 4.21774e-25)
(1.37081e-08 -3.89166e-08 -2.02059e-25)
(1.3716e-08 -3.89201e-08 6.23929e-25)
(1.37238e-08 -3.89205e-08 0)
(1.37333e-08 -3.89191e-08 0)
(1.37442e-08 -3.89222e-08 0)
(1.37552e-08 -3.89237e-08 0)
(1.3769e-08 -3.89231e-08 0)
(1.37847e-08 -3.89272e-08 6.24035e-25)
(1.38023e-08 -3.89289e-08 -6.24072e-25)
(1.38238e-08 -3.8929e-08 -2.01235e-25)
(1.38496e-08 -3.89362e-08 0)
(1.38798e-08 -3.89419e-08 -5.95347e-31)
(1.39192e-08 -3.89465e-08 -5.95417e-31)
(1.39694e-08 -3.89609e-08 0)
(1.40351e-08 -3.89729e-08 0)
(1.41306e-08 -3.89763e-08 0)
(1.4238e-08 -3.89366e-08 0)
(1.43463e-08 -3.86176e-08 1.96548e-25)
(1.5364e-08 -3.36045e-08 -1.86898e-25)
(-5.58323e-09 -3.92783e-08 -3.41687e-25)
(2.65843e-07 3.98112e-07 -7.87025e-31)
(3.85501e-07 2.52825e-07 2.09492e-24)
(2.59558e-07 3.81804e-07 -2.61122e-31)
(3.6294e-07 2.3892e-07 -1.43835e-24)
(4.32798e-07 2.83896e-07 -9.47767e-25)
(2.66761e-07 3.61668e-07 4.9669e-27)
(2.65288e-07 3.98144e-07 2.12573e-25)
(3.81457e-07 2.50466e-07 0)
(3.9236e-07 2.55457e-07 2.36603e-24)
(2.66259e-07 3.98109e-07 0)
(2.72043e-07 3.80193e-07 -1.53241e-24)
(4.20429e-07 2.89065e-07 -2.80188e-24)
(2.59332e-07 3.82383e-07 3.60102e-25)
(4.19612e-07 2.71618e-07 0)
(3.49834e-07 2.38653e-07 -1.94046e-25)
(2.6439e-07 3.98255e-07 -1.9677e-31)
(2.48038e-07 3.70876e-07 -8.39775e-27)
(4.01794e-07 2.55702e-07 0)
(4.28475e-07 2.68612e-07 -4.68473e-25)
(2.66677e-07 3.9812e-07 1.03e-24)
(3.93085e-07 2.65704e-07 1.89671e-24)
(2.9023e-07 3.89665e-07 0)
(2.62663e-07 3.98502e-07 -5.90131e-31)
(3.50592e-07 2.37415e-07 -5.27274e-25)
(4.2097e-07 2.77855e-07 8.96747e-25)
(2.66457e-07 3.6266e-07 1.53097e-24)
(2.67178e-07 3.98163e-07 6.18454e-25)
(3.37715e-07 2.45492e-07 -7.38034e-25)
(4.01839e-07 2.52421e-07 7.96021e-25)
(2.70147e-07 3.59224e-07 -9.53285e-25)
(2.5949e-07 3.98974e-07 -9.83885e-32)
(4.58346e-07 3.09172e-07 -1.08007e-24)
(2.67872e-07 3.98232e-07 -1.65437e-24)
(3.59597e-07 2.7687e-07 2.54567e-25)
(3.59571e-07 2.69101e-07 -2.00737e-26)
(2.67734e-07 3.85906e-07 -2.17984e-24)
(2.67045e-07 3.52204e-07 -1.36168e-27)
(3.41881e-07 2.72399e-07 0)
(2.55022e-07 3.992e-07 2.46758e-25)
(4.32898e-07 2.859e-07 -9.71845e-27)
(4.05981e-07 2.75796e-07 0)
(2.66098e-07 3.97978e-07 1.0286e-24)
(2.68844e-07 3.98381e-07 1.03735e-24)
(3.50073e-07 2.37942e-07 -1.01979e-24)
(4.0257e-07 2.65271e-07 -1.38738e-24)
(2.52606e-07 3.97545e-07 3.1565e-30)
(2.66051e-07 3.80243e-07 -5.65857e-25)
(4.22e-07 2.64569e-07 7.90016e-27)
(2.66026e-07 3.98102e-07 0)
(3.68565e-07 2.45087e-07 -1.71512e-24)
(4.1621e-07 2.73297e-07 -6.65683e-25)
(2.60535e-07 3.8415e-07 0)
(3.46408e-07 2.34051e-07 0)
(2.65571e-07 3.98121e-07 -8.25233e-25)
(2.70292e-07 3.98685e-07 -1.86771e-24)
(4.14941e-07 2.63561e-07 1.28099e-24)
(2.66449e-07 3.98109e-07 -1.18048e-30)
(3.9796e-07 2.4692e-07 1.52684e-24)
(2.64617e-07 3.92116e-07 0)
(4.57456e-07 2.98076e-07 -1.63972e-25)
(2.59291e-07 3.82212e-07 0)
(4.12625e-07 2.70255e-07 -1.28134e-24)
(4.20121e-07 2.91809e-07 2.91946e-25)
(2.64914e-07 3.9818e-07 6.11406e-25)
(2.68924e-07 3.51325e-07 -1.30175e-24)
(4.2016e-07 2.8184e-07 -1.40692e-24)
(2.62084e-07 3.71594e-07 -1.58786e-24)
(4.52905e-07 3.03113e-07 6.27951e-25)
(2.67559e-07 3.63653e-07 2.7814e-25)
(4.24717e-07 2.84074e-07 2.57594e-26)
(3.95911e-07 2.48153e-07 0)
(2.73466e-07 3.99788e-07 0)
(4.25138e-07 2.78295e-07 5.19707e-25)
(2.66585e-07 3.56385e-07 -8.05774e-25)
(2.41007e-07 3.71401e-07 1.97682e-26)
(4.11532e-07 3.02494e-07 0)
(4.00006e-07 2.6047e-07 -4.76827e-25)
(2.73016e-07 3.73738e-07 1.15185e-24)
(2.4061e-07 3.6708e-07 7.29787e-25)
(4.17246e-07 2.77435e-07 1.03124e-26)
(2.63578e-07 3.98369e-07 1.96641e-31)
(4.21519e-07 2.77105e-07 -4.26972e-26)
(4.08603e-07 2.93706e-07 1.17377e-24)
(2.56604e-07 3.77201e-07 -2.04067e-24)
(2.68967e-07 3.62221e-07 2.07647e-24)
(3.54919e-07 2.37818e-07 2.25961e-24)
(2.67487e-07 3.98185e-07 3.93431e-31)
(4.33172e-07 2.74862e-07 8.93728e-25)
(4.17646e-07 2.81479e-07 8.37784e-26)
(2.66936e-07 3.98144e-07 1.03085e-24)
(2.61359e-07 3.98699e-07 0)
(3.77648e-07 2.86958e-07 -3.3151e-25)
(2.71086e-07 3.5313e-07 1.96375e-25)
(3.97625e-07 2.51569e-07 -5.55984e-25)
(4.13526e-07 2.9765e-07 2.2708e-25)
(2.79786e-07 4.04631e-07 1.73602e-24)
(3.28229e-07 2.55629e-07 0)
(2.66171e-07 3.6202e-07 0)
(2.84938e-07 4.24673e-07 0)
(4.30334e-07 2.93504e-07 8.99881e-25)
(2.62508e-07 3.6554e-07 1.56619e-24)
(3.61104e-07 2.70198e-07 -5.55068e-25)
(2.65943e-07 3.98104e-07 6.14762e-25)
(3.84069e-07 2.54681e-07 -5.85224e-25)
(4.19976e-07 2.96485e-07 -2.77978e-25)
(2.66122e-07 3.98108e-07 -6.15333e-25)
(3.85811e-07 2.50299e-07 -1.93365e-25)
(2.80157e-07 3.75437e-07 -2.6455e-29)
(4.06167e-07 2.46288e-07 -4.46547e-25)
(2.65738e-07 3.98101e-07 -2.87939e-24)
(2.59462e-07 3.82239e-07 2.61526e-31)
(4.18699e-07 2.85023e-07 -1.93441e-24)
(4.55333e-07 2.9981e-07 -7.63713e-26)
(2.56093e-07 3.68249e-07 -2.02317e-24)
(2.67416e-07 3.90548e-07 -1.9186e-24)
(2.67613e-07 3.91619e-07 0)
(4.46845e-07 2.78671e-07 5.47881e-25)
(2.5946e-07 3.82678e-07 -1.22345e-24)
(2.52748e-07 3.98533e-07 -1.56086e-24)
(3.52009e-07 2.39779e-07 -2.8368e-24)
(3.89291e-07 2.6444e-07 0)
(2.67961e-07 3.88158e-07 2.16349e-24)
(3.95944e-07 2.46985e-07 1.09884e-24)
(4.09784e-07 2.58508e-07 1.53793e-24)
(2.63079e-07 3.7971e-07 -2.55841e-24)
(2.53676e-07 3.95922e-07 -1.81532e-27)
(3.51239e-07 2.72361e-07 -2.37013e-24)
(4.57038e-07 3.0709e-07 7.49473e-27)
(3.89495e-07 2.50774e-07 -2.1262e-25)
(2.71502e-07 3.99032e-07 -6.29678e-25)
(2.67985e-07 3.72708e-07 2.68154e-25)
(3.50311e-07 2.65017e-07 8.44891e-25)
(2.69455e-07 3.98502e-07 1.66414e-24)
(2.68391e-07 3.98305e-07 0)
(2.66559e-07 3.9812e-07 -7.87038e-31)
(3.85652e-07 2.65581e-07 -6.00362e-25)
(2.66359e-07 3.98106e-07 0)
(3.79641e-07 2.52269e-07 2.37697e-26)
(4.0454e-07 2.73657e-07 9.92832e-25)
(4.05637e-07 2.50866e-07 -1.13443e-25)
(4.18545e-07 2.76457e-07 9.60075e-25)
(2.59294e-07 3.82025e-07 0)
(2.66793e-07 3.98128e-07 -1.0304e-24)
(3.84822e-07 2.6271e-07 7.91225e-25)
(2.57858e-07 3.99141e-07 5.87119e-25)
(4.13099e-07 2.96319e-07 -2.92451e-25)
(4.61064e-07 3.10676e-07 -1.61216e-25)
(4.00228e-07 2.5169e-07 -5.79222e-25)
(2.65439e-07 3.98137e-07 1.85146e-24)
(3.15741e-07 2.5982e-07 -4.22175e-25)
(3.60787e-07 2.36111e-07 -1.70646e-24)
(2.64685e-07 3.98211e-07 -3.93498e-31)
(2.65129e-07 3.98158e-07 5.90256e-31)
(2.65683e-07 3.87112e-07 5.37023e-25)
(3.41664e-07 2.42458e-07 -3.02636e-25)
(2.68477e-07 3.56685e-07 -2.62825e-27)
(3.8975e-07 2.48629e-07 -1.95525e-25)
(2.64029e-07 3.9829e-07 0)
(3.57148e-07 2.41122e-07 0)
(2.68503e-07 3.50992e-07 7.86802e-25)
(2.55681e-07 3.8336e-07 5.27859e-31)
(4.13102e-07 2.74144e-07 3.20474e-25)
(4.00824e-07 2.46412e-07 3.69387e-25)
(2.65304e-07 3.6507e-07 3.22834e-25)
(2.37286e-07 3.5884e-07 -2.70793e-27)
(4.50828e-07 2.91718e-07 1.46735e-24)
(4.16098e-07 3.04973e-07 -2.15787e-24)
(2.62999e-07 4.20226e-07 -2.19896e-24)
(2.65887e-07 3.98105e-07 -2.10637e-25)
(5.0241e-07 5.01143e-07 -1.08565e-29)
(5.02321e-07 5.01146e-07 -1.52939e-28)
(5.02369e-07 5.01223e-07 -1.52086e-28)
(5.02275e-07 5.01229e-07 0)
(5.02329e-07 5.01306e-07 0)
(5.02235e-07 5.01316e-07 0)
(5.02292e-07 5.01392e-07 1.45426e-28)
(5.02198e-07 5.01406e-07 4.03852e-30)
(5.02259e-07 5.01478e-07 3.35434e-29)
(5.02166e-07 5.01497e-07 7.22024e-35)
(5.0223e-07 5.01566e-07 -1.32082e-28)
(5.02139e-07 5.01589e-07 -1.83269e-28)
(5.02205e-07 5.01655e-07 6.08581e-28)
(5.02292e-07 5.01631e-07 4.34258e-35)
(5.0227e-07 5.01716e-07 -1.71966e-28)
(5.02186e-07 5.01743e-07 -1.2075e-28)
(5.02254e-07 5.018e-07 -5.38501e-35)
(5.02173e-07 5.01832e-07 -1.03676e-28)
(5.02242e-07 5.01883e-07 1.23665e-34)
(5.02165e-07 5.0192e-07 9.98737e-29)
(5.02236e-07 5.01966e-07 1.54863e-34)
(5.02163e-07 5.02007e-07 7.89778e-29)
(5.02237e-07 5.02047e-07 1.55814e-28)
(5.02169e-07 5.02093e-07 9.93269e-29)
(5.02243e-07 5.02125e-07 -1.50591e-28)
(5.0218e-07 5.02176e-07 0)
(5.02256e-07 5.02201e-07 0)
(5.02199e-07 5.02256e-07 0)
(5.02275e-07 5.02274e-07 1.36435e-28)
(5.02325e-07 5.02223e-07 3.54208e-29)
(5.02344e-07 5.02288e-07 -2.84434e-28)
(5.02388e-07 5.02242e-07 1.7458e-34)
(5.02406e-07 5.023e-07 1.17517e-28)
(5.02445e-07 5.02257e-07 -1.38331e-28)
(5.02462e-07 5.0231e-07 8.31165e-35)
(5.02496e-07 5.02271e-07 1.00616e-28)
(5.02511e-07 5.02317e-07 0)
(5.02542e-07 5.02283e-07 5.61664e-35)
(5.02555e-07 5.02324e-07 -1.16671e-34)
(5.02582e-07 5.02294e-07 -8.84899e-29)
(5.02593e-07 5.02329e-07 1.37329e-29)
(5.02616e-07 5.02304e-07 6.80145e-29)
(5.02625e-07 5.02334e-07 0)
(5.02645e-07 5.02313e-07 -1.46219e-29)
(5.02653e-07 5.02339e-07 1.16412e-29)
(5.0267e-07 5.02322e-07 -1.39692e-29)
(5.02675e-07 5.02343e-07 1.68993e-29)
(5.0269e-07 5.0233e-07 -6.59283e-35)
(5.02692e-07 5.02347e-07 -3.76765e-35)
(5.02682e-07 5.0236e-07 -3.03706e-30)
(5.02697e-07 5.02361e-07 0)
(5.02705e-07 5.02351e-07 0)
(5.02708e-07 5.02361e-07 0)
(5.02714e-07 5.02356e-07 -5.02811e-36)
(5.02715e-07 5.02362e-07 -1.70046e-35)
(5.02713e-07 5.02367e-07 -6.81778e-30)
(5.02717e-07 5.02365e-07 1.82202e-35)
(5.02718e-07 5.02364e-07 5.42248e-30)
(5.02717e-07 5.02364e-07 0)
(5.0272e-07 5.02365e-07 0)
(5.02718e-07 5.02361e-07 1.14554e-29)
(5.02714e-07 5.02363e-07 0)
(5.02713e-07 5.02357e-07 -2.8979e-29)
(5.0272e-07 5.02354e-07 -1.3173e-29)
(5.02712e-07 5.02349e-07 1.09635e-29)
(5.02722e-07 5.02344e-07 1.45304e-29)
(5.02712e-07 5.02337e-07 -1.22011e-29)
(5.02702e-07 5.02344e-07 0)
(5.02699e-07 5.02331e-07 -3.08038e-29)
(5.02689e-07 5.02341e-07 7.03379e-30)
(5.02684e-07 5.02326e-07 2.37397e-29)
(5.02697e-07 5.02315e-07 -3.40807e-29)
(5.0268e-07 5.02308e-07 -2.54064e-35)
(5.02667e-07 5.02322e-07 6.28692e-30)
(5.02661e-07 5.02303e-07 0)
(5.02676e-07 5.02288e-07 0)
(5.02655e-07 5.02282e-07 6.0495e-35)
(5.0264e-07 5.02299e-07 7.06107e-30)
(5.02632e-07 5.02277e-07 1.01218e-29)
(5.02649e-07 5.02259e-07 -1.36561e-29)
(5.02624e-07 5.02253e-07 -1.06048e-29)
(5.02608e-07 5.02272e-07 0)
(5.02599e-07 5.02248e-07 -4.03509e-35)
(5.02617e-07 5.02228e-07 -5.25327e-29)
(5.02589e-07 5.02222e-07 -5.412e-31)
(5.02608e-07 5.02201e-07 4.05275e-35)
(5.0258e-07 5.02195e-07 -1.09086e-29)
(5.02561e-07 5.02218e-07 -4.98756e-31)
(5.0255e-07 5.0219e-07 5.76053e-37)
(5.0257e-07 5.02167e-07 1.10209e-29)
(5.02539e-07 5.02162e-07 -4.65052e-35)
(5.0252e-07 5.02186e-07 0)
(5.02508e-07 5.02157e-07 0)
(5.0249e-07 5.02183e-07 0)
(5.02477e-07 5.02154e-07 2.23988e-37)
(5.02496e-07 5.02128e-07 9.90873e-35)
(5.02463e-07 5.02124e-07 -5.96941e-29)
(5.02445e-07 5.02151e-07 5.39341e-30)
(5.02431e-07 5.02121e-07 5.42648e-29)
(5.0245e-07 5.02094e-07 0)
(5.02416e-07 5.02091e-07 0)
(5.02398e-07 5.02119e-07 0)
(5.02383e-07 5.02089e-07 4.45448e-30)
(5.02402e-07 5.02061e-07 0)
(5.02368e-07 5.02059e-07 -4.38658e-30)
(5.02387e-07 5.0203e-07 6.17849e-29)
(5.02349e-07 5.02087e-07 0)
(5.02334e-07 5.02057e-07 1.08462e-34)
(5.02316e-07 5.02085e-07 -1.08378e-34)
(5.023e-07 5.02055e-07 -1.08944e-34)
(5.02282e-07 5.02083e-07 -3.08192e-30)
(5.02266e-07 5.02053e-07 5.46858e-35)
(5.02248e-07 5.02082e-07 5.4621e-35)
(5.02233e-07 5.02052e-07 0)
(5.02214e-07 5.0208e-07 -6.02332e-29)
(5.02199e-07 5.0205e-07 6.3083e-29)
(5.0218e-07 5.02079e-07 1.20582e-28)
(5.02368e-07 5.02349e-07 0)
(5.02165e-07 5.02049e-07 -6.02094e-29)
(5.02147e-07 5.02078e-07 -6.03604e-29)
(5.02131e-07 5.02047e-07 2.17868e-34)
(5.02149e-07 5.02019e-07 2.98915e-30)
(5.02113e-07 5.02076e-07 -2.18019e-34)
(5.02128e-07 5.02106e-07 -1.09785e-34)
(5.02094e-07 5.02105e-07 -5.48191e-35)
(5.0211e-07 5.02135e-07 1.09945e-34)
(5.02076e-07 5.02133e-07 5.49045e-35)
(5.02116e-07 5.02017e-07 5.4195e-35)
(5.02134e-07 5.01989e-07 -2.97724e-30)
(5.02091e-07 5.02164e-07 0)
(5.021e-07 5.01988e-07 -5.97605e-29)
(5.02118e-07 5.01959e-07 5.94519e-29)
(5.02057e-07 5.02162e-07 -5.54279e-35)
(5.02073e-07 5.02193e-07 -5.58653e-35)
(5.02085e-07 5.01958e-07 1.07022e-34)
(5.02103e-07 5.0193e-07 0)
(5.02038e-07 5.02191e-07 5.55491e-35)
(5.02054e-07 5.02222e-07 5.60027e-35)
(5.0207e-07 5.01928e-07 -5.88986e-29)
(5.02087e-07 5.019e-07 -1.0639e-34)
(5.02019e-07 5.0222e-07 0)
(5.02055e-07 5.01899e-07 5.25955e-35)
(5.02072e-07 5.01871e-07 -1.05412e-34)
(5.02035e-07 5.02252e-07 5.67542e-35)
(5.02e-07 5.0225e-07 6.33412e-29)
(5.0204e-07 5.0187e-07 1.04074e-34)
(5.02057e-07 5.01843e-07 0)
(5.02016e-07 5.02281e-07 -5.69142e-35)
(5.0198e-07 5.0228e-07 0)
(5.02025e-07 5.01841e-07 5.70593e-29)
(5.02042e-07 5.01814e-07 5.14769e-35)
(5.01996e-07 5.02311e-07 -6.40833e-29)
(5.02011e-07 5.01813e-07 -5.63155e-29)
(5.02027e-07 5.01787e-07 -5.54895e-29)
(5.01961e-07 5.02309e-07 6.42545e-29)
(5.01977e-07 5.02342e-07 -6.47562e-29)
(5.01996e-07 5.01785e-07 5.54872e-29)
(5.02013e-07 5.01759e-07 0)
(5.01941e-07 5.0234e-07 6.4928e-29)
(5.01982e-07 5.01758e-07 5.4656e-29)
(5.01999e-07 5.01732e-07 5.36497e-29)
(5.01957e-07 5.02372e-07 3.67358e-30)
(5.01921e-07 5.0237e-07 0)
(5.01969e-07 5.01731e-07 -1.0742e-28)
(5.01985e-07 5.01706e-07 0)
(5.02014e-07 5.01706e-07 -1.26836e-30)
(5.02e-07 5.0168e-07 0)
(5.0203e-07 5.01681e-07 1.47619e-31)
(5.02015e-07 5.01655e-07 5.03047e-29)
(5.02044e-07 5.01655e-07 1.47653e-34)
(5.02029e-07 5.0163e-07 4.90485e-29)
(5.02058e-07 5.01629e-07 -4.9277e-29)
(5.02043e-07 5.01605e-07 -9.60823e-35)
(5.02071e-07 5.01604e-07 9.88671e-35)
(5.02055e-07 5.0158e-07 -9.6552e-35)
(5.02083e-07 5.01578e-07 0)
(5.02067e-07 5.01555e-07 9.66724e-35)
(5.02095e-07 5.01551e-07 0)
(5.02078e-07 5.01529e-07 0)
(5.02105e-07 5.01525e-07 -5.05136e-35)
(5.02087e-07 5.01504e-07 0)
(5.02115e-07 5.01499e-07 7.60804e-35)
(5.02096e-07 5.01478e-07 2.46135e-35)
(5.02123e-07 5.01472e-07 -1.33438e-29)
(5.02104e-07 5.01452e-07 1.34654e-29)
(5.0213e-07 5.01445e-07 -3.87704e-29)
(5.0211e-07 5.01426e-07 -3.64196e-29)
(5.02136e-07 5.01418e-07 3.65451e-29)
(5.02116e-07 5.014e-07 -1.82917e-29)
(5.01937e-07 5.02403e-07 -3.90681e-30)
(5.02141e-07 5.01391e-07 2.62676e-35)
(5.019e-07 5.02401e-07 4.68231e-30)
(5.01884e-07 5.02368e-07 -6.09718e-29)
(5.02027e-07 5.01582e-07 0)
(5.02091e-07 5.01409e-07 -2.39081e-35)
(5.02096e-07 5.01384e-07 1.83735e-29)
(5.01863e-07 5.02398e-07 1.17382e-34)
(5.01847e-07 5.02365e-07 6.65526e-29)
(5.01917e-07 5.02434e-07 -4.52311e-30)
(5.02072e-07 5.01393e-07 0)
(5.02076e-07 5.01369e-07 4.57658e-35)
(5.01826e-07 5.02395e-07 -6.39928e-30)
(5.0181e-07 5.02362e-07 7.37268e-29)
(5.01789e-07 5.02392e-07 6.82919e-30)
(5.01774e-07 5.02358e-07 -6.73224e-29)
(5.02054e-07 5.01377e-07 1.62082e-29)
(5.02057e-07 5.01355e-07 4.34875e-35)
(5.01752e-07 5.02388e-07 1.15549e-34)
(5.01737e-07 5.02354e-07 -5.70096e-35)
(5.02037e-07 5.01363e-07 -1.61761e-29)
(5.02039e-07 5.01342e-07 -2.46098e-29)
(5.01715e-07 5.02384e-07 8.0641e-30)
(5.017e-07 5.0235e-07 -8.54743e-30)
(5.01678e-07 5.0238e-07 7.7303e-29)
(5.01663e-07 5.02346e-07 0)
(5.0202e-07 5.0135e-07 2.4978e-29)
(5.02022e-07 5.0133e-07 -2.22469e-29)
(5.01693e-07 5.02414e-07 -1.50743e-31)
(5.01641e-07 5.02376e-07 -6.87752e-29)
(5.01627e-07 5.02341e-07 -9.53019e-30)
(5.01604e-07 5.02371e-07 -9.53581e-30)
(5.0159e-07 5.02337e-07 -6.90286e-29)
(5.02004e-07 5.01338e-07 1.8196e-35)
(5.02005e-07 5.01319e-07 1.99238e-29)
(5.02022e-07 5.0131e-07 -1.98004e-29)
(5.02005e-07 5.01301e-07 -1.79389e-35)
(5.02021e-07 5.0129e-07 0)
(5.02004e-07 5.01282e-07 0)
(5.01567e-07 5.02366e-07 -5.94675e-29)
(5.01553e-07 5.02332e-07 5.88002e-29)
(5.0199e-07 5.0131e-07 1.72132e-29)
(5.02019e-07 5.0127e-07 1.87342e-35)
(5.0153e-07 5.02361e-07 6.94487e-29)
(5.01516e-07 5.02326e-07 -5.6314e-35)
(5.02001e-07 5.01264e-07 0)
(5.01493e-07 5.02356e-07 5.63949e-35)