/*--------------------------------*- C++ -*----------------------------------*\
  =========                 |
  \\      /  F ield         | OpenFOAM: The Open Source CFD Toolbox
   \\    /   O peration     | Website:  https://openfoam.org
    \\  /    A nd           | Version:  6
     \\/     M anipulation  |
\*---------------------------------------------------------------------------*/
FoamFile
{
    version     2.0;
    format      ascii;
    class       volScalarField;
    location    "259200";
    object      Cg0;
}
// * * * * * * * * * * * * * * * * * * * * * * * * * * * * * * * * * * * * * //

dimensions      [1 -3 0 0 0 0 0];

internalField   nonuniform List<scalar> 
184
(
4.34187e-10
4.34187e-10
4.34154e-10
4.33962e-10
4.34089e-10
4.34398e-10
4.45548e-10
8.17928e-10
5.47478e-09
5.03403e-09
2.62378e-08
5.27875e-07
0.000533621
0.00339499
0.00789214
0.013956
0.0213542
0.0297975
0.0389946
0.0486832
0.0586415
0.0686894
0.0786847
0.0885179
0.0981063
0.107389
0.116322
0.12461
0.115384
0.106364
0.0978109
0.0897221
0.0820914
0.0749103
0.0681678
0.061851
0.0559456
0.050436
0.0453058
0.0405377
0.0361143
0.0320176
0.02823
0.0247337
0.0215113
0.0185459
0.0158208
0.0133196
0.0110281
0.00893117
0.00701352
0.00526299
0.00366676
0.00221175
0.000889655
9.59623e-06
1.96683e-06
7.01727e-07
2.8041e-07
1.24896e-07
4.6759e-08
1.95413e-08
8.24317e-09
4.12803e-09
4.96459e-09
5.49623e-09
4.73361e-09
4.65047e-09
5.30646e-09
5.07434e-09
4.9498e-09
5.4581e-09
5.43591e-09
4.99441e-09
4.58699e-09
4.21185e-09
3.86689e-09
3.55e-09
3.25921e-09
2.99266e-09
2.7486e-09
2.52541e-09
2.32157e-09
2.13562e-09
1.96623e-09
1.81212e-09
1.6721e-09
1.54503e-09
1.42988e-09
1.32566e-09
1.23146e-09
1.14641e-09
1.06973e-09
1.00068e-09
9.38575e-10
8.82789e-10
8.3274e-10
7.87892e-10
7.47752e-10
7.11871e-10
6.79833e-10
6.51262e-10
6.25811e-10
6.03167e-10
5.83044e-10
5.6518e-10
5.49342e-10
5.35314e-10
5.22904e-10
5.11938e-10
5.02259e-10
4.93724e-10
4.86208e-10
4.79596e-10
4.73786e-10
4.68685e-10
4.64212e-10
4.60293e-10
4.56864e-10
4.53867e-10
4.51249e-10
4.48966e-10
4.46977e-10
4.45245e-10
4.43738e-10
4.4243e-10
4.41294e-10
4.4031e-10
4.39457e-10
4.38719e-10
4.38081e-10
4.3753e-10
4.37055e-10
4.36645e-10
4.36293e-10
4.35989e-10
4.35728e-10
4.35505e-10
4.35312e-10
4.35148e-10
4.35007e-10
4.34886e-10
4.34783e-10
4.34695e-10
4.34619e-10
4.34555e-10
4.34501e-10
4.34454e-10
4.34414e-10
4.34381e-10
4.34352e-10
4.34328e-10
4.34307e-10
4.34289e-10
4.34275e-10
4.34262e-10
4.34251e-10
4.34242e-10
4.34234e-10
4.34228e-10
4.34222e-10
4.34218e-10
4.34214e-10
4.3421e-10
4.34207e-10
4.34205e-10
4.34202e-10
4.34201e-10
4.34199e-10
4.34197e-10
4.34196e-10
4.34195e-10
4.34194e-10
4.34193e-10
4.34192e-10
4.34192e-10
4.34191e-10
4.3419e-10
4.3419e-10
4.34189e-10
4.34189e-10
4.34188e-10
4.34188e-10
4.34187e-10
)
;

boundaryField
{
    bc0
    {
        type            zeroGradient;
    }
    bc1
    {
        type            zeroGradient;
    }
    bc2
    {
        type            zeroGradient;
    }
    bc3
    {
        type            zeroGradient;
    }
    top
    {
        type            zeroGradient;
    }
    bottom
    {
        type            zeroGradient;
    }
}


// ************************************************************************* //
