/*--------------------------------*- C++ -*----------------------------------*\
  =========                 |
  \\      /  F ield         | OpenFOAM: The Open Source CFD Toolbox
   \\    /   O peration     | Website:  https://openfoam.org
    \\  /    A nd           | Version:  6
     \\/     M anipulation  |
\*---------------------------------------------------------------------------*/
FoamFile
{
    version     2.0;
    format      ascii;
    class       volScalarField;
    location    "259200";
    object      Cg1;
}
// * * * * * * * * * * * * * * * * * * * * * * * * * * * * * * * * * * * * * //

dimensions      [1 -3 0 0 0 0 0];

internalField   nonuniform List<scalar> 
184
(
0.000874926
0.000874926
0.000874865
0.000874727
0.0008751
0.000878456
0.000972066
0.00221294
0.00838189
0.022019
0.0405
0.060172
0.0746065
0.0797945
0.0840303
0.0874522
0.0902246
0.0924641
0.0942794
0.0957605
0.0969798
0.0979955
0.098854
0.0995922
0.10024
0.10082
0.101351
0.101752
0.103615
0.105298
0.106899
0.108419
0.109862
0.111229
0.112524
0.113748
0.114904
0.115996
0.117026
0.117998
0.118914
0.119777
0.12059
0.121356
0.122078
0.122759
0.123401
0.12401
0.124586
0.125123
0.125637
0.126123
0.126578
0.127011
0.127415
0.126241
0.119425
0.112894
0.10667
0.100742
0.095098
0.0897272
0.0846185
0.0797617
0.075147
0.0707646
0.0666054
0.0626603
0.0589206
0.0553775
0.0520228
0.0488485
0.0458465
0.0430092
0.0403293
0.0377995
0.0354128
0.0331625
0.0310422
0.0290454
0.0271662
0.0253987
0.0237373
0.0221765
0.0207112
0.0193364
0.0180472
0.0168391
0.0157077
0.0146487
0.0136581
0.0127321
0.0118669
0.0110592
0.0103054
0.00960254
0.00894747
0.00833733
0.0077694
0.00724108
0.0067499
0.00629353
0.00586976
0.00547651
0.0051118
0.00477376
0.00446063
0.00417076
0.00390258
0.00365462
0.0034255
0.00321392
0.00301866
0.00283856
0.00267257
0.00251965
0.00237887
0.00224935
0.00213024
0.0020208
0.00192028
0.00182803
0.00174341
0.00166584
0.00159479
0.00152973
0.0014702
0.00141578
0.00136604
0.00132061
0.00127916
0.00124134
0.00120687
0.00117548
0.00114689
0.00112088
0.00109723
0.00107574
0.00105623
0.00103851
0.00102244
0.00100788
0.000994682
0.000982734
0.000971923
0.000962147
0.000953311
0.00094533
0.000938126
0.000931626
0.000925766
0.000920485
0.00091573
0.000911449
0.000907598
0.000904137
0.000901025
0.000898231
0.000895723
0.000893472
0.000891454
0.000889644
0.000888022
0.000886569
0.000885267
0.000884101
0.000883056
0.00088212
0.000881281
0.000880528
0.000879852
0.000879245
0.000878697
0.000878202
0.000877753
0.000877345
0.000876971
0.000876626
0.000876306
0.000876006
0.000875722
0.00087545
0.000875185
0.000874925
)
;

boundaryField
{
    bc0
    {
        type            zeroGradient;
    }
    bc1
    {
        type            zeroGradient;
    }
    bc2
    {
        type            zeroGradient;
    }
    bc3
    {
        type            zeroGradient;
    }
    top
    {
        type            zeroGradient;
    }
    bottom
    {
        type            zeroGradient;
    }
}


// ************************************************************************* //
