/*--------------------------------*- C++ -*----------------------------------*\
  =========                 |
  \\      /  F ield         | OpenFOAM: The Open Source CFD Toolbox
   \\    /   O peration     | Website:  https://openfoam.org
    \\  /    A nd           | Version:  6
     \\/     M anipulation  |
\*---------------------------------------------------------------------------*/
FoamFile
{
    version     2.0;
    format      ascii;
    class       volScalarField;
    location    "259200";
    object      Cw1;
}
// * * * * * * * * * * * * * * * * * * * * * * * * * * * * * * * * * * * * * //

dimensions      [0 -3 0 0 1 0 0];

internalField   nonuniform List<scalar> 
184
(
0.000431363
0.000431363
0.000431318
0.000431008
0.000431101
0.000431184
0.000431404
0.000432481
0.000433516
0.000434673
0.0004361
0.000437587
0.000438679
0.000439091
0.000439395
0.000439688
0.000439873
0.000440077
0.000440188
0.000440335
0.000440396
0.000440509
0.00044054
0.000440643
0.000441369
0.000474444
0.00159355
0.0166013
0.0012271
0.000459056
0.000441383
0.000441258
0.000441378
0.000441446
0.00044157
0.00044163
0.000441743
0.000441796
0.000441898
0.000441943
0.000442036
0.000442076
0.000442159
0.000442193
0.000442268
0.000442298
0.000442365
0.00044239
0.000442452
0.000442473
0.000442529
0.000442547
0.000442596
0.00044261
0.000442651
0.000442543
0.000442065
0.000441573
0.000441131
0.000440681
0.000440279
0.000439869
0.000439505
0.000439133
0.000438804
0.000438467
0.00043817
0.000437865
0.000437598
0.000437323
0.000437083
0.000436835
0.000436621
0.000436397
0.000436206
0.000436005
0.000435835
0.000435655
0.000435503
0.000435341
0.000435207
0.000435062
0.000434942
0.000434812
0.000434706
0.00043459
0.000434495
0.000434391
0.000434307
0.000434212
0.000434133
0.000434059
0.000433977
0.000433914
0.000433839
0.000433781
0.000433713
0.00043366
0.000433596
0.000433547
0.000433487
0.00043344
0.000433383
0.000433336
0.000433286
0.000433237
0.000433189
0.00043314
0.000433092
0.000433043
0.000432994
0.000432945
0.000432922
0.000432825
0.000432801
0.00043275
0.000432699
0.000432648
0.000432596
0.000432545
0.000432493
0.000432442
0.00043239
0.000432339
0.000432288
0.000432238
0.000432189
0.000432141
0.000432093
0.000432047
0.000432001
0.000431957
0.000431935
0.000431862
0.000431842
0.000431806
0.000431771
0.000431738
0.000431707
0.000431679
0.000431652
0.000431627
0.000431604
0.000431583
0.000431563
0.000431544
0.000431527
0.000431512
0.000431498
0.000431485
0.000431473
0.000431461
0.00043145
0.000431455
0.000431423
0.00043143
0.000431422
0.000431415
0.00043141
0.000431405
0.0004314
0.000431396
0.000431393
0.00043139
0.000431387
0.000431384
0.000431382
0.00043138
0.000431378
0.000431376
0.000431375
0.000431373
0.00043137
0.00043138
0.000431361
0.000431371
0.000431369
0.000431367
0.000431367
0.000431366
0.000431365
0.000431365
0.000431364
0.000431363
)
;

boundaryField
{
    bc0
    {
        type            zeroGradient;
    }
    bc1
    {
        type            zeroGradient;
    }
    bc2
    {
        type            zeroGradient;
    }
    bc3
    {
        type            zeroGradient;
    }
    top
    {
        type            zeroGradient;
    }
    bottom
    {
        type            zeroGradient;
    }
}


// ************************************************************************* //
