/*--------------------------------*- C++ -*----------------------------------*\
  =========                 |
  \\      /  F ield         | OpenFOAM: The Open Source CFD Toolbox
   \\    /   O peration     | Website:  https://openfoam.org
    \\  /    A nd           | Version:  6
     \\/     M anipulation  |
\*---------------------------------------------------------------------------*/
FoamFile
{
    version     2.0;
    format      ascii;
    class       volScalarField;
    location    "259200";
    object      Cw2;
}
// * * * * * * * * * * * * * * * * * * * * * * * * * * * * * * * * * * * * * //

dimensions      [0 -3 0 0 1 0 0];

internalField   nonuniform List<scalar> 
184
(
0.0018661
0.0018661
0.00186593
0.00186523
0.00186472
0.00184753
0.00177816
0.00175745
0.00208107
0.00292975
0.0041243
0.0054125
0.00636908
0.0067223
0.0070097
0.00724218
0.00743043
0.00758281
0.00770635
0.00780746
0.00789065
0.00796025
0.00801896
0.00806973
0.00811618
0.00825579
0.011656
0.0567297
0.0107096
0.00851303
0.00856798
0.00867057
0.00876861
0.00886139
0.0089494
0.00903249
0.00911117
0.00918532
0.00925545
0.00932145
0.00938383
0.00944248
0.00949789
0.00954999
0.00959922
0.00964552
0.00968933
0.00973072
0.00976994
0.00980645
0.00984139
0.00987416
0.0099045
0.0099322
0.00995548
0.00987491
0.00944009
0.00901999
0.00861853
0.00823572
0.00787134
0.0075246
0.00719504
0.00688184
0.0065845
0.00630225
0.00603463
0.00578089
0.0055406
0.00531305
0.00509783
0.00489427
0.00470198
0.00452033
0.00434896
0.00418726
0.00403491
0.00389134
0.00375623
0.00362907
0.00350956
0.00339722
0.00329178
0.00319278
0.00309998
0.00301296
0.00293151
0.00285521
0.00278389
0.00271716
0.00265486
0.00259669
0.00254239
0.00249179
0.0024446
0.0024007
0.0023598
0.0023218
0.00228644
0.00225363
0.00222314
0.00219489
0.00216866
0.00214439
0.0021219
0.0021011
0.00208185
0.00206407
0.00204764
0.00203248
0.00201849
0.00200559
0.00199379
0.00198271
0.00197272
0.00196346
0.00195494
0.00194712
0.00193995
0.00193336
0.00192732
0.00192179
0.00191672
0.00191208
0.00190784
0.00190396
0.00190042
0.00189718
0.00189423
0.00189154
0.00188908
0.00188685
0.00188488
0.00188293
0.00188131
0.00187979
0.00187841
0.00187716
0.00187603
0.00187501
0.00187408
0.00187325
0.00187249
0.00187181
0.0018712
0.00187065
0.00187016
0.00186971
0.00186931
0.00186896
0.00186864
0.00186835
0.00186809
0.0018679
0.00186762
0.00186748
0.00186732
0.00186717
0.00186704
0.00186693
0.00186683
0.00186674
0.00186666
0.00186659
0.00186653
0.00186647
0.00186642
0.00186638
0.00186634
0.00186631
0.00186628
0.00186625
0.00186623
0.00186624
0.00186617
0.00186618
0.00186617
0.00186615
0.00186614
0.00186613
0.00186612
0.00186611
0.0018661
0.0018661
)
;

boundaryField
{
    bc0
    {
        type            zeroGradient;
    }
    bc1
    {
        type            zeroGradient;
    }
    bc2
    {
        type            zeroGradient;
    }
    bc3
    {
        type            zeroGradient;
    }
    top
    {
        type            zeroGradient;
    }
    bottom
    {
        type            zeroGradient;
    }
}


// ************************************************************************* //
