/*--------------------------------*- C++ -*----------------------------------*\
  =========                 |
  \\      /  F ield         | OpenFOAM: The Open Source CFD Toolbox
   \\    /   O peration     | Website:  https://openfoam.org
    \\  /    A nd           | Version:  6
     \\/     M anipulation  |
\*---------------------------------------------------------------------------*/
FoamFile
{
    version     2.0;
    format      ascii;
    class       volScalarField;
    location    "259200";
    object      Cw3;
}
// * * * * * * * * * * * * * * * * * * * * * * * * * * * * * * * * * * * * * //

dimensions      [0 -3 0 0 1 0 0];

internalField   nonuniform List<scalar> 
184
(
0.000165027
0.000165027
0.00016501
0.00016489
0.000164926
0.000164954
0.000164965
0.000164968
0.000164972
0.000164977
0.000164984
0.00016499
0.000164998
0.000165008
0.000165005
0.00016502
0.000165013
0.000165028
0.000165019
0.000165033
0.000165022
0.000165037
0.000165024
0.000165026
0.000164288
0.000130783
-0.000993319
-0.0160257
-0.00062614
0.000146719
0.000164765
0.000165026
0.000165035
0.000165022
0.000165033
0.000165022
0.000165032
0.000165021
0.000165032
0.000165022
0.000165031
0.000165022
0.000165031
0.000165023
0.000165031
0.000165023
0.000165031
0.000165023
0.000165031
0.000165023
0.000165031
0.000165024
0.00016503
0.000165024
0.00016503
0.000165024
0.00016503
0.000165024
0.00016503
0.000165024
0.00016503
0.000165024
0.00016503
0.000165025
0.000165029
0.000165025
0.000165029
0.000165025
0.000165029
0.000165025
0.000165029
0.000165025
0.000165029
0.000165025
0.000165029
0.000165025
0.000165029
0.000165025
0.000165029
0.000165025
0.000165029
0.000165025
0.000165029
0.000165025
0.000165029
0.000165026
0.000165029
0.000165026
0.000165029
0.000165026
0.000165027
0.000165028
0.000165026
0.000165028
0.000165026
0.000165028
0.000165026
0.000165028
0.000165026
0.000165028
0.000165026
0.000165028
0.000165026
0.000165027
0.000165027
0.000165027
0.000165027
0.000165027
0.000165027
0.000165027
0.000165026
0.000165026
0.000165036
0.000165018
0.000165028
0.000165028
0.000165027
0.000165027
0.000165027
0.000165027
0.000165027
0.000165027
0.000165027
0.000165027
0.000165027
0.000165027
0.000165027
0.000165027
0.000165027
0.000165027
0.000165027
0.000165026
0.000165034
0.000165021
0.000165028
0.000165027
0.000165027
0.000165027
0.000165027
0.000165027
0.000165027
0.000165027
0.000165027
0.000165027
0.000165027
0.000165027
0.000165027
0.000165027
0.000165027
0.000165027
0.000165027
0.000165027
0.000165026
0.000165032
0.000165022
0.000165028
0.000165027
0.000165027
0.000165027
0.000165027
0.000165027
0.000165027
0.000165027
0.000165027
0.000165027
0.000165027
0.000165027
0.000165027
0.000165027
0.000165027
0.000165027
0.000165027
0.000165026
0.00016503
0.000165024
0.000165028
0.000165027
0.000165027
0.000165027
0.000165027
0.000165027
0.000165027
0.000165027
0.000165027
)
;

boundaryField
{
    bc0
    {
        type            zeroGradient;
    }
    bc1
    {
        type            zeroGradient;
    }
    bc2
    {
        type            zeroGradient;
    }
    bc3
    {
        type            zeroGradient;
    }
    top
    {
        type            zeroGradient;
    }
    bottom
    {
        type            zeroGradient;
    }
}


// ************************************************************************* //
