/*--------------------------------*- C++ -*----------------------------------*\
  =========                 |
  \\      /  F ield         | OpenFOAM: The Open Source CFD Toolbox
   \\    /   O peration     | Website:  https://openfoam.org
    \\  /    A nd           | Version:  6
     \\/     M anipulation  |
\*---------------------------------------------------------------------------*/
FoamFile
{
    version     2.0;
    format      ascii;
    class       volScalarField;
    location    "259200";
    object      Cw4;
}
// * * * * * * * * * * * * * * * * * * * * * * * * * * * * * * * * * * * * * //

dimensions      [0 -3 0 0 1 0 0];

internalField   nonuniform List<scalar> 
184
(
7.80344e-11
7.80344e-11
7.80266e-11
7.79938e-11
7.80166e-11
7.80736e-11
8.0079e-11
1.46996e-10
9.83732e-10
9.04401e-10
4.71365e-09
9.48224e-08
9.58578e-05
0.000609932
0.00141777
0.00250701
0.00383597
0.00535278
0.00700521
0.0087462
0.0105359
0.0123421
0.014139
0.015907
0.017631
0.0193001
0.0209036
0.0223426
0.0207362
0.0191167
0.0175793
0.0161254
0.0147538
0.013463
0.0122511
0.0111158
0.0100545
0.00906431
0.00814233
0.00728544
0.00649049
0.00575427
0.00507358
0.00444525
0.00386614
0.00333321
0.00284346
0.00239396
0.0019821
0.00160522
0.00126055
0.000945901
0.000658966
0.000397403
0.000159773
1.72235e-06
3.53266e-07
1.26078e-07
5.03873e-08
2.2444e-08
8.4029e-09
3.51175e-09
1.48138e-09
7.41852e-10
8.92194e-10
9.87738e-10
8.50688e-10
8.3575e-10
9.53642e-10
9.11928e-10
8.89549e-10
9.80901e-10
9.76916e-10
8.97573e-10
8.24356e-10
7.56939e-10
6.94944e-10
6.37996e-10
5.85738e-10
5.37834e-10
4.93974e-10
4.53864e-10
4.1723e-10
3.83813e-10
3.5337e-10
3.25674e-10
3.00509e-10
2.77674e-10
2.56979e-10
2.38249e-10
2.21319e-10
2.06034e-10
1.92253e-10
1.79844e-10
1.68683e-10
1.58657e-10
1.49662e-10
1.41602e-10
1.34388e-10
1.27939e-10
1.22182e-10
1.17047e-10
1.12473e-10
1.08403e-10
1.04787e-10
1.01576e-10
9.87297e-11
9.62086e-11
9.39783e-11
9.20075e-11
9.02679e-11
8.87342e-11
8.73834e-11
8.61951e-11
8.51508e-11
8.4234e-11
8.34301e-11
8.27259e-11
8.21097e-11
8.1571e-11
8.11006e-11
8.06903e-11
8.03327e-11
8.00214e-11
7.97508e-11
7.95156e-11
7.93115e-11
7.91346e-11
7.89813e-11
7.88487e-11
7.87341e-11
7.86351e-11
7.85497e-11
7.84761e-11
7.84127e-11
7.83582e-11
7.83113e-11
7.8271e-11
7.82365e-11
7.82069e-11
7.81816e-11
7.81599e-11
7.81413e-11
7.81255e-11
7.8112e-11
7.81005e-11
7.80906e-11
7.80823e-11
7.80751e-11
7.80691e-11
7.80639e-11
7.80596e-11
7.80559e-11
7.80527e-11
7.805e-11
7.80478e-11
7.80458e-11
7.80442e-11
7.80428e-11
7.80416e-11
7.80406e-11
7.80398e-11
7.80391e-11
7.80384e-11
7.80379e-11
7.80375e-11
7.80371e-11
7.80367e-11
7.80364e-11
7.80362e-11
7.8036e-11
7.80358e-11
7.80356e-11
7.80354e-11
7.80353e-11
7.80351e-11
7.8035e-11
7.80349e-11
7.80348e-11
7.80347e-11
7.80346e-11
7.80345e-11
7.80344e-11
7.80344e-11
)
;

boundaryField
{
    bc0
    {
        type            zeroGradient;
    }
    bc1
    {
        type            zeroGradient;
    }
    bc2
    {
        type            zeroGradient;
    }
    bc3
    {
        type            zeroGradient;
    }
    top
    {
        type            zeroGradient;
    }
    bottom
    {
        type            zeroGradient;
    }
}


// ************************************************************************* //
