/*--------------------------------*- C++ -*----------------------------------*\
  =========                 |
  \\      /  F ield         | OpenFOAM: The Open Source CFD Toolbox
   \\    /   O peration     | Website:  https://openfoam.org
    \\  /    A nd           | Version:  6
     \\/     M anipulation  |
\*---------------------------------------------------------------------------*/
FoamFile
{
    version     2.0;
    format      ascii;
    class       volScalarField;
    location    "259200";
    object      Cw5;
}
// * * * * * * * * * * * * * * * * * * * * * * * * * * * * * * * * * * * * * //

dimensions      [0 -3 0 0 1 0 0];

internalField   nonuniform List<scalar> 
184
(
0.000461667
0.000461667
0.000461619
0.000461303
0.000461409
0.000461604
0.000464938
0.000507751
0.00071766
0.00118085
0.00180848
0.00247632
0.00296656
0.00314306
0.0032867
0.00340284
0.00349692
0.00357306
0.00363481
0.00368532
0.00372691
0.00376167
0.00379103
0.00381638
0.00383925
0.0038924
0.00503172
0.0200582
0.00474192
0.00402885
0.00406526
0.00411665
0.00416564
0.00421202
0.00425598
0.00429752
0.00433682
0.00437389
0.00440892
0.00444192
0.00447307
0.00450239
0.00453007
0.00455612
0.00458071
0.00460386
0.00462574
0.00464643
0.00466603
0.00468428
0.00470173
0.00471812
0.00473328
0.00474713
0.00475875
0.00471628
0.00448799
0.00426741
0.00405652
0.00385535
0.00366373
0.00348131
0.0033078
0.00314281
0.00298606
0.00283718
0.00269591
0.00256188
0.00243485
0.00231448
0.00220053
0.00209269
0.00199072
0.00189432
0.00180329
0.00171734
0.00163627
0.00155981
0.00148779
0.00141994
0.00135611
0.00129605
0.00123962
0.00118658
0.00113681
0.00109009
0.0010463
0.00100524
0.00096681
0.00093082
0.000897166
0.000865704
0.000836299
0.000808856
0.000783235
0.000759355
0.000737085
0.000716354
0.000697043
0.00067909
0.000662385
0.000646875
0.000632459
0.000619088
0.000606682
0.000595182
0.000584527
0.000574662
0.000565532
0.000557087
0.000549281
0.000542071
0.000535441
0.00052925
0.000523611
0.00051839
0.00051358
0.000509151
0.000505077
0.000501329
0.000497885
0.000494721
0.000491816
0.000489151
0.000486706
0.000484466
0.000482413
0.000480535
0.000478816
0.000477243
0.000475806
0.000474494
0.000473317
0.00047219
0.000471214
0.000470307
0.000469481
0.00046873
0.000468048
0.000467428
0.000466865
0.000466354
0.000465891
0.000465471
0.000465091
0.000464747
0.000464436
0.000464155
0.000463901
0.000463672
0.000463465
0.000463278
0.000463109
0.000462972
0.000462812
0.000462703
0.000462592
0.000462493
0.000462404
0.000462324
0.000462253
0.000462189
0.000462131
0.00046208
0.000462034
0.000461992
0.000461955
0.000461922
0.000461892
0.000461866
0.000461842
0.00046182
0.000461799
0.000461792
0.000461759
0.000461755
0.00046174
0.000461728
0.000461716
0.000461706
0.000461695
0.000461686
0.000461676
0.000461667
)
;

boundaryField
{
    bc0
    {
        type            zeroGradient;
    }
    bc1
    {
        type            zeroGradient;
    }
    bc2
    {
        type            zeroGradient;
    }
    bc3
    {
        type            zeroGradient;
    }
    top
    {
        type            zeroGradient;
    }
    bottom
    {
        type            zeroGradient;
    }
}


// ************************************************************************* //
