/*--------------------------------*- C++ -*----------------------------------*\
  =========                 |
  \\      /  F ield         | OpenFOAM: The Open Source CFD Toolbox
   \\    /   O peration     | Website:  https://openfoam.org
    \\  /    A nd           | Version:  6
     \\/     M anipulation  |
\*---------------------------------------------------------------------------*/
FoamFile
{
    version     2.0;
    format      ascii;
    class       volScalarField;
    location    "259200";
    object      Cw6;
}
// * * * * * * * * * * * * * * * * * * * * * * * * * * * * * * * * * * * * * //

dimensions      [0 -3 0 0 1 0 0];

internalField   nonuniform List<scalar> 
184
(
0.000299133
0.000299133
0.000299102
0.000298885
0.000298949
0.000299002
0.000299022
0.000299028
0.000299033
0.000299043
0.000299055
0.000299066
0.00029908
0.000299099
0.000299093
0.000299121
0.000299108
0.000299135
0.000299119
0.000299145
0.000299125
0.000299151
0.000299128
0.000299154
0.000299129
0.000299156
0.000299181
0.000299884
0.000299164
0.000299151
0.000299126
0.000299136
0.000299147
0.000299124
0.000299144
0.000299123
0.000299142
0.000299123
0.000299141
0.000299123
0.000299141
0.000299124
0.000299141
0.000299125
0.00029914
0.000299126
0.00029914
0.000299126
0.00029914
0.000299127
0.00029914
0.000299127
0.000299139
0.000299127
0.000299139
0.000299128
0.000299139
0.000299128
0.000299138
0.000299128
0.000299138
0.000299128
0.000299138
0.000299129
0.000299138
0.000299129
0.000299137
0.000299129
0.000299137
0.000299129
0.000299137
0.000299129
0.000299137
0.00029913
0.000299137
0.00029913
0.000299137
0.00029913
0.000299136
0.00029913
0.000299136
0.00029913
0.000299136
0.00029913
0.000299136
0.00029913
0.000299136
0.000299131
0.000299136
0.000299131
0.000299133
0.000299136
0.000299131
0.000299136
0.000299131
0.000299135
0.000299131
0.000299135
0.000299131
0.000299135
0.000299131
0.000299135
0.000299131
0.000299133
0.000299133
0.000299133
0.000299133
0.000299133
0.000299133
0.000299133
0.000299132
0.000299132
0.00029915
0.000299117
0.000299134
0.000299134
0.000299134
0.000299133
0.000299133
0.000299133
0.000299133
0.000299133
0.000299133
0.000299133
0.000299133
0.000299133
0.000299133
0.000299133
0.000299133
0.000299133
0.000299132
0.000299132
0.000299145
0.000299121
0.000299135
0.000299134
0.000299133
0.000299133
0.000299133
0.000299133
0.000299133
0.000299133
0.000299133
0.000299133
0.000299133
0.000299133
0.000299133
0.000299133
0.000299133
0.000299133
0.000299133
0.000299133
0.000299132
0.000299142
0.000299125
0.000299135
0.000299134
0.000299133
0.000299133
0.000299133
0.000299133
0.000299133
0.000299133
0.000299133
0.000299133
0.000299133
0.000299133
0.000299133
0.000299133
0.000299133
0.000299133
0.000299133
0.000299132
0.000299139
0.000299127
0.000299134
0.000299134
0.000299133
0.000299133
0.000299133
0.000299133
0.000299133
0.000299133
0.000299133
)
;

boundaryField
{
    bc0
    {
        type            zeroGradient;
    }
    bc1
    {
        type            zeroGradient;
    }
    bc2
    {
        type            zeroGradient;
    }
    bc3
    {
        type            zeroGradient;
    }
    top
    {
        type            zeroGradient;
    }
    bottom
    {
        type            zeroGradient;
    }
}


// ************************************************************************* //
