/*--------------------------------*- C++ -*----------------------------------*\
  =========                 |
  \\      /  F ield         | OpenFOAM: The Open Source CFD Toolbox
   \\    /   O peration     | Website:  https://openfoam.org
    \\  /    A nd           | Version:  6
     \\/     M anipulation  |
\*---------------------------------------------------------------------------*/
FoamFile
{
    version     2.0;
    format      ascii;
    class       volScalarField;
    location    "259200";
    object      hp;
}
// * * * * * * * * * * * * * * * * * * * * * * * * * * * * * * * * * * * * * //

dimensions      [0 1 0 0 0 0 0];

internalField   nonuniform List<scalar> 
184
(
0.02
0.0100013
2.53168e-06
-0.0099959
-0.0199939
-0.0299914
-0.0399881
-0.0499837
-0.0599779
-0.0699703
-0.0799603
-0.0899472
-0.0999301
-0.109908
-0.11988
-0.129845
-0.139801
-0.149748
-0.159683
-0.169605
-0.179513
-0.189406
-0.199283
-0.209144
-0.218991
-0.228823
-0.238644
-0.248455
-0.25826
-0.268064
-0.277871
-0.287686
-0.297514
-0.307359
-0.317225
-0.327114
-0.337027
-0.346965
-0.356926
-0.36691
-0.376911
-0.386928
-0.396956
-0.406993
-0.417037
-0.427086
-0.437139
-0.447193
-0.457248
-0.467303
-0.477359
-0.487414
-0.497468
-0.507522
-0.517576
-0.52763
-0.537683
-0.547736
-0.557788
-0.567841
-0.577893
-0.587945
-0.597996
-0.608048
-0.6181
-0.628151
-0.638202
-0.648254
-0.658305
-0.668356
-0.678407
-0.688458
-0.698509
-0.70856
-0.71861
-0.728661
-0.738712
-0.748762
-0.758813
-0.768863
-0.778914
-0.788964
-0.799015
-0.809065
-0.819115
-0.829165
-0.839214
-0.849262
-0.859308
-0.869352
-0.879394
-0.889435
-0.899478
-0.909523
-0.919571
-0.92962
-0.93967
-0.949719
-0.959769
-0.969819
-0.979866
-0.98991
-0.999946
-1.00997
-1.01999
-1.03
-1.04
-1.05
-1.06001
-1.07002
-1.08007
-1.09018
-1.10037
-1.11061
-1.12081
-1.13092
-1.14098
-1.15099
-1.161
-1.171
-1.181
-1.191
-1.201
-1.211
-1.221
-1.231
-1.241
-1.251
-1.261
-1.27101
-1.28104
-1.29113
-1.30134
-1.31165
-1.32186
-1.33196
-1.34199
-1.352
-1.362
-1.372
-1.382
-1.392
-1.402
-1.412
-1.422
-1.432
-1.442
-1.452
-1.462
-1.472
-1.482
-1.49202
-1.50209
-1.51231
-1.52269
-1.53291
-1.54298
-1.553
-1.563
-1.573
-1.583
-1.593
-1.603
-1.613
-1.623
-1.633
-1.643
-1.653
-1.663
-1.673
-1.683
-1.69301
-1.70306
-1.71327
-1.72373
-1.73394
-1.74399
-1.754
-1.764
-1.774
-1.784
-1.794
-1.804
-1.814
)
;

boundaryField
{
    bc0
    {
        type            fixedGradient;
        gradient        uniform -1;
    }
    bc1
    {
        type            zeroGradient;
    }
    bc2
    {
        type            zeroGradient;
    }
    bc3
    {
        type            zeroGradient;
    }
    top
    {
        type            zeroGradient;
    }
    bottom
    {
        type            zeroGradient;
    }
}


// ************************************************************************* //
