/*--------------------------------*- C++ -*----------------------------------*\
  =========                 |
  \\      /  F ield         | OpenFOAM: The Open Source CFD Toolbox
   \\    /   O peration     | Website:  https://openfoam.org
    \\  /    A nd           | Version:  6
     \\/     M anipulation  |
\*---------------------------------------------------------------------------*/
FoamFile
{
    version     2.0;
    format      ascii;
    class       surfaceScalarField;
    location    "259200";
    object      phiw;
}
// * * * * * * * * * * * * * * * * * * * * * * * * * * * * * * * * * * * * * //

dimensions      [0 3 -1 0 0 0 0];

internalField   nonuniform List<scalar> 
183
(
-5.78924e-07
-3.10373e-10
-2.98396e-10
-2.9874e-10
-2.98835e-10
-2.98626e-10
-2.98075e-10
-2.97154e-10
-2.95837e-10
-2.94087e-10
-2.91861e-10
-2.89099e-10
-2.8573e-10
-2.81674e-10
-2.76843e-10
-2.71144e-10
-2.64488e-10
-2.56793e-10
-2.4799e-10
-2.3803e-10
-2.26893e-10
-2.14591e-10
-2.01178e-10
-1.8675e-10
-1.71454e-10
-1.55483e-10
-1.39075e-10
-1.22504e-10
-1.06071e-10
-9.00899e-11
-7.48671e-11
-6.06861e-11
-4.77879e-11
-3.63554e-11
-2.65017e-11
-1.82644e-11
-1.16068e-11
-6.42631e-12
-2.57796e-12
1.05529e-13
2.03299e-12
3.20817e-12
3.85957e-12
4.12984e-12
4.13949e-12
3.98475e-12
3.73783e-12
3.44935e-12
3.15218e-12
2.86569e-12
2.59984e-12
2.35852e-12
2.14206e-12
1.94897e-12
1.77699e-12
1.62371e-12
1.4868e-12
1.36421e-12
1.25415e-12
1.15507e-12
1.06564e-12
9.84733e-13
9.1137e-13
8.44708e-13
7.84013e-13
7.28648e-13
6.78057e-13
6.31749e-13
5.89295e-13
5.50314e-13
5.1447e-13
4.81464e-13
4.51032e-13
4.22936e-13
3.96965e-13
3.72929e-13
3.50658e-13
3.3e-13
3.10814e-13
2.92972e-13
2.76342e-13
2.60779e-13
2.46082e-13
2.31939e-13
2.17868e-13
2.03235e-13
1.87505e-13
1.70823e-13
1.54643e-13
1.41561e-13
1.3372e-13
1.30899e-13
1.30558e-13
1.29889e-13
1.2751e-13
1.23477e-13
1.18381e-13
1.12561e-13
1.05719e-13
9.67862e-14
8.42178e-14
6.7128e-14
4.70282e-14
2.80544e-14
1.41754e-14
6.68854e-15
5.28587e-15
1.13597e-14
3.09706e-14
7.42841e-14
1.45295e-13
2.21602e-13
2.52925e-13
2.11623e-13
1.30875e-13
6.15698e-14
2.27696e-14
6.81858e-15
1.69491e-15
3.56854e-16
6.46998e-17
1.02636e-17
1.64107e-18
1.76869e-18
1.09884e-17
6.83005e-17
3.77776e-16
1.8176e-15
7.40016e-15
2.4565e-14
6.31447e-14
1.17011e-13
1.43237e-13
1.11857e-13
5.7184e-14
2.05925e-14
5.56985e-15
1.18738e-15
2.06709e-16
3.01786e-17
3.77115e-18
4.09922e-19
3.97278e-20
9.081e-21
6.36099e-20
6.36808e-19
5.74476e-18
4.56957e-17
3.13127e-16
1.79126e-15
8.18247e-15
2.79295e-14
6.41596e-14
8.46084e-14
6.1411e-14
2.5466e-14
6.95319e-15
1.37919e-15
2.11895e-16
2.63347e-17
2.73052e-18
2.41665e-19
1.85949e-20
1.51293e-21
3.94024e-21
5.33079e-20
6.57908e-19
7.12651e-18
6.61033e-17
5.07585e-16
3.0714e-15
1.35572e-14
3.82079e-14
5.37557e-14
3.66327e-14
1.24468e-14
2.64414e-15
3.99222e-16
4.62076e-17
4.30412e-18
3.33631e-19
2.20515e-20
1.26267e-21
)
;

boundaryField
{
    bc0
    {
        type            calculated;
        value           uniform -2.01948e-28;
    }
    bc1
    {
        type            calculated;
        value           uniform 0;
    }
    bc2
    {
        type            calculated;
        value           uniform 2.31482e-06;
    }
    bc3
    {
        type            calculated;
        value           uniform 0;
    }
    top
    {
        type            calculated;
        value           uniform 0;
    }
    bottom
    {
        type            calculated;
        value           uniform 0;
    }
}


// ************************************************************************* //
