/*--------------------------------*- C++ -*----------------------------------*\
  =========                 |
  \\      /  F ield         | OpenFOAM: The Open Source CFD Toolbox
   \\    /   O peration     | Website:  https://openfoam.org
    \\  /    A nd           | Version:  6
     \\/     M anipulation  |
\*---------------------------------------------------------------------------*/
FoamFile
{
    version     2.0;
    format      ascii;
    class       volVectorField;
    location    "259200";
    object      Uw;
}
// * * * * * * * * * * * * * * * * * * * * * * * * * * * * * * * * * * * * * //

dimensions      [0 1 -1 0 0 0 0];

internalField   nonuniform List<vector> 
184
(
(0 -1.44687e-06 0)
(0 -2.89617e-07 0)
(0 -3.04385e-10 0)
(0 -2.98568e-10 0)
(0 -2.98788e-10 0)
(0 -2.98731e-10 0)
(0 -2.98351e-10 0)
(0 -2.97615e-10 0)
(0 -2.96496e-10 0)
(0 -2.94962e-10 0)
(0 -2.92974e-10 0)
(0 -2.9048e-10 0)
(0 -2.87414e-10 0)
(0 -2.83702e-10 0)
(0 -2.79259e-10 0)
(0 -2.73993e-10 0)
(0 -2.67816e-10 0)
(0 -2.6064e-10 0)
(0 -2.52391e-10 0)
(0 -2.4301e-10 0)
(0 -2.32462e-10 0)
(0 -2.20742e-10 0)
(0 -2.07885e-10 0)
(0 -1.93964e-10 0)
(0 -1.79102e-10 0)
(0 -1.63469e-10 0)
(0 -1.47279e-10 0)
(0 -1.30789e-10 0)
(0 -1.14287e-10 0)
(0 -9.80805e-11 0)
(0 -8.24785e-11 0)
(0 -6.77766e-11 0)
(0 -5.4237e-11 0)
(0 -4.20716e-11 0)
(0 -3.14285e-11 0)
(0 -2.2383e-11 0)
(0 -1.49356e-11 0)
(0 -9.01653e-12 0)
(0 -4.50213e-12 0)
(0 -1.23621e-12 0)
(0 1.06926e-12 0)
(0 2.62058e-12 0)
(0 3.53387e-12 0)
(0 3.99471e-12 0)
(0 4.13466e-12 0)
(0 4.06212e-12 0)
(0 3.86129e-12 0)
(0 3.59359e-12 0)
(0 3.30076e-12 0)
(0 3.00893e-12 0)
(0 2.73277e-12 0)
(0 2.47918e-12 0)
(0 2.25029e-12 0)
(0 2.04551e-12 0)
(0 1.86298e-12 0)
(0 1.70035e-12 0)
(0 1.55525e-12 0)
(0 1.42551e-12 0)
(0 1.30918e-12 0)
(0 1.20461e-12 0)
(0 1.11035e-12 0)
(0 1.02519e-12 0)
(0 9.48052e-13 0)
(0 8.78039e-13 0)
(0 8.1436e-13 0)
(0 7.56331e-13 0)
(0 7.03353e-13 0)
(0 6.54903e-13 0)
(0 6.10522e-13 0)
(0 5.69804e-13 0)
(0 5.32392e-13 0)
(0 4.97967e-13 0)
(0 4.66248e-13 0)
(0 4.36984e-13 0)
(0 4.0995e-13 0)
(0 3.84947e-13 0)
(0 3.61794e-13 0)
(0 3.40329e-13 0)
(0 3.20407e-13 0)
(0 3.01893e-13 0)
(0 2.84657e-13 0)
(0 2.68561e-13 0)
(0 2.53431e-13 0)
(0 2.39011e-13 0)
(0 2.24903e-13 0)
(0 2.10551e-13 0)
(0 1.9537e-13 0)
(0 1.79164e-13 0)
(0 1.62733e-13 0)
(0 1.48102e-13 0)
(0 1.37641e-13 0)
(0 1.3231e-13 0)
(0 1.30728e-13 0)
(0 1.30223e-13 0)
(0 1.28699e-13 0)
(0 1.25493e-13 0)
(0 1.20929e-13 0)
(0 1.15471e-13 0)
(0 1.0914e-13 0)
(0 1.01252e-13 0)
(0 9.0502e-14 0)
(0 7.56729e-14 0)
(0 5.70781e-14 0)
(0 3.75413e-14 0)
(0 2.11149e-14 0)
(0 1.0432e-14 0)
(0 5.98721e-15 0)
(0 8.3228e-15 0)
(0 2.11652e-14 0)
(0 5.26273e-14 0)
(0 1.0979e-13 0)
(0 1.83449e-13 0)
(0 2.37264e-13 0)
(0 2.32274e-13 0)
(0 1.71249e-13 0)
(0 9.62226e-14 0)
(0 4.21697e-14 0)
(0 1.47941e-14 0)
(0 4.25674e-15 0)
(0 1.02588e-15 0)
(0 2.10777e-16 0)
(0 3.74817e-17 0)
(0 5.95234e-18 0)
(0 1.70488e-18 0)
(0 6.37857e-18 0)
(0 3.96445e-17 0)
(0 2.23038e-16 0)
(0 1.09769e-15 0)
(0 4.60888e-15 0)
(0 1.59826e-14 0)
(0 4.38549e-14 0)
(0 9.00777e-14 0)
(0 1.30124e-13 0)
(0 1.27547e-13 0)
(0 8.45205e-14 0)
(0 3.88882e-14 0)
(0 1.30812e-14 0)
(0 3.37861e-15 0)
(0 6.97044e-16 0)
(0 1.18444e-16 0)
(0 1.69749e-17 0)
(0 2.09054e-18 0)
(0 2.24825e-19 0)
(0 2.44044e-20 0)
(0 3.63454e-20 0)
(0 3.50209e-19 0)
(0 3.19079e-18 0)
(0 2.57202e-17 0)
(0 1.79411e-16 0)
(0 1.05219e-15 0)
(0 4.98687e-15 0)
(0 1.8056e-14 0)
(0 4.60446e-14 0)
(0 7.4384e-14 0)
(0 7.30097e-14 0)
(0 4.34385e-14 0)
(0 1.62096e-14 0)
(0 4.16619e-15 0)
(0 7.95544e-16 0)
(0 1.19115e-16 0)
(0 1.45326e-17 0)
(0 1.48609e-18 0)
(0 1.3013e-19 0)
(0 1.00539e-20 0)
(0 2.72659e-21 0)
(0 2.86241e-20 0)
(0 3.55608e-19 0)
(0 3.89221e-18 0)
(0 3.66149e-17 0)
(0 2.86844e-16 0)
(0 1.78949e-15 0)
(0 8.31431e-15 0)
(0 2.58825e-14 0)
(0 4.59818e-14 0)
(0 4.51942e-14 0)
(0 2.45397e-14 0)
(0 7.54546e-15 0)
(0 1.52168e-15 0)
(0 2.22715e-16 0)
(0 2.52559e-17 0)
(0 2.31888e-18 0)
(0 1.77841e-19 0)
(0 1.16571e-20 0)
(0 6.31336e-22 0)
)
;

boundaryField
{
    bc0
    {
        type            zeroGradient;
    }
    bc1
    {
        type            zeroGradient;
    }
    bc2
    {
        type            zeroGradient;
    }
    bc3
    {
        type            zeroGradient;
    }
    top
    {
        type            zeroGradient;
    }
    bottom
    {
        type            zeroGradient;
    }
}


// ************************************************************************* //
