/*--------------------------------*- C++ -*----------------------------------*\
  =========                 |
  \\      /  F ield         | OpenFOAM: The Open Source CFD Toolbox
   \\    /   O peration     | Website:  https://openfoam.org
    \\  /    A nd           | Version:  6
     \\/     M anipulation  |
\*---------------------------------------------------------------------------*/
FoamFile
{
    version     2.0;
    format      ascii;
    class       volScalarField;
    location    "19872000";
    object      Cw;
}
// * * * * * * * * * * * * * * * * * * * * * * * * * * * * * * * * * * * * * //

dimensions      [1 -3 0 0 0 0 0];

internalField   nonuniform List<scalar> 
11831
(
0
0
0
0
0
0
0
0
0
0
0
0
0
0
0
0
0
0
0
0
0
0
0
0
0
0
0
0
0
0
0
0
0
0
0
0
0
0
0
0
0
0
0
0
0
0
0
0
0
0
0
0
0
0
0
0
0
0
0
0
0
0
0
0
0
0
0
0
0
0
0
0
0
0
0
0
0
0
0
0
0
0
0
0
0
0
0
0
0
0
0
0
0
0
0
0
0
0
0
0
0
0
0
0
0
0
0
0
0
0
0
0
0
0
0
0
0
0
0
0
0
0
0
0
0
0
0
0
0
0
0
0
0
0
0
0
0
0
0
0
0
0
0
0
0
0
0
0
0
0
0
0
0
0
0
0
0
0
0
0
0
0
0
0
0
0
0
0
0
0
0
0
0
0
0
0
0
0
0
0
0
0
0
0
0
0
0
0
0
0
0
0
0
0
0
0
0
0
0
0
0
0
0
0
0
0
0
0
0
0
0
0
0
0
0
0
0
0
0
0
0
0
0
0
0
0
0
0
0
0
0
0
0
0
0
0
0
0
0
0
0
0
0
0
0
0
0
0
0
0
0
0
0
0
0
0
0
0
0
0
0
0
0
0
0
0
0
0
0
0
0
0
0
0
0
0
0
0
0
0
0
0
0
0
0
0
0
0
0
0
0
0
0
0
0
0
0
0
0
0
0
0
0
0
0
0
0
0
0
0
0
0
0
0
0
0
0
0
0
0
0
0
0
0
0
0
0
0
0
0
0
0
0
0
0
0
0
0
0
0
0
0
0
0
0
0
0
0
0
0
0
0
0
0
0
0
0
0
0
0
0
0
0
0
0
0
0
0
0
0
0
0
0
0
0
0
0
0
0
0
0
0
0
0
0
0
0
0
0
0
0
0
0
0
0
0
0
0
0
0
-2.12589e-18
-1.69717e-19
4.27193e-20
-1.71629e-15
-3.56841e-22
-2.86322e-16
-1.80453e-17
-7.54506e-18
-3.06163e-21
-4.72982e-14
-2.03937e-17
1.95296e-22
4.57377e-15
-1.94277e-20
-1.80253e-25
7.80472e-15
9.4698e-26
1.73271e-12
-1.21824e-15
-5.01463e-24
-4.2669e-23
-7.38038e-16
2.84942e-14
-1.14258e-28
-8.82101e-27
-8.4761e-12
-5.18315e-15
-1.10798e-27
9.39022e-14
-3.67407e-31
-5.30518e-26
-1.27099e-13
2.43849e-12
-2.61916e-30
-3.78619e-30
-3.98337e-15
-6.02687e-13
2.04007e-33
3.08142e-28
-3.5312e-14
2.19311e-11
2.11328e-32
7.3432e-32
9.03542e-14
3.04719e-13
5.94008e-36
5.16169e-31
3.73077e-13
1.74297e-19
2.13189e-18
8.39255e-15
3.73236e-21
1.39705e-11
-2.196e-34
5.22888e-21
5.01572e-17
1.45227e-17
1.0457e-16
-6.85105e-24
-2.26887e-13
2.20417e-16
-7.5994e-34
6.20789e-24
2.11285e-16
6.08554e-14
1.44223e-22
-3.00235e-16
4.71385e-19
3.56886e-12
1.9277e-36
4.03144e-36
2.11095e-14
5.48703e-13
-3.33961e-38
-2.96681e-33
1.44308e-13
2.64677e-14
6.53561e-27
-7.3508e-12
1.01521e-28
1.40923e-29
2.29771e-13
1.31653e-26
-3.41824e-14
6.16475e-22
-1.66894e-14
3.26093e-28
3.80221e-25
6.42126e-15
-2.5347e-14
1.92184e-24
1.28915e-13
1.349e-37
7.65621e-13
7.72023e-15
-5.37659e-38
3.10883e-13
1.9181e-35
-5.82233e-40
3.92207e-14
-2.98799e-34
-3.2967e-13
1.57108e-11
-6.58335e-32
5.42658e-13
7.71554e-37
-4.75454e-13
2.03012e-32
1.98912e-11
1.52313e-33
7.9995e-12
-2.65612e-35
-8.57499e-21
4.93997e-19
-4.2509e-18
2.83936e-19
-3.50491e-24
3.28878e-13
6.37139e-17
-1.45966e-18
-5.78927e-18
-5.91527e-20
6.55704e-15
-9.25375e-25
-2.41284e-15
9.68379e-20
-5.45855e-21
3.09519e-14
1.07063e-25
1.97576e-12
-5.51645e-14
-9.11567e-30
-1.02694e-27
2.75599e-13
-3.93155e-16
3.07105e-19
-6.21592e-22
7.7034e-17
2.24066e-15
-1.04483e-20
-7.85108e-27
-3.14291e-13
-2.72584e-14
1.24725e-33
-9.36261e-16
1.59079e-35
-2.44808e-30
6.01415e-22
3.87337e-32
3.57363e-14
6.55586e-14
1.66075e-23
5.90314e-14
-2.59453e-13
9.39308e-23
7.589e-17
1.09697e-21
4.24134e-27
-4.11983e-16
1.32134e-15
-2.04423e-23
4.06509e-17
-1.07226e-17
2.83436e-13
-3.89691e-38
2.18514e-13
1.30904e-15
-1.20122e-40
-3.33724e-19
-3.46147e-18
-5.65671e-18
-9.57065e-18
-7.6338e-18
-9.50983e-18
3.78874e-17
9.47462e-17
2.94038e-16
5.71205e-16
7.66797e-16
1.31815e-15
6.95738e-16
3.54151e-16
2.06307e-15
-1.46564e-15
-1.62346e-14
-3.49207e-14
-7.58161e-14
-1.32693e-13
-1.56352e-13
-2.29914e-13
6.96091e-15
2.60467e-13
1.94744e-12
4.09115e-12
8.47916e-12
1.47004e-11
1.7151e-11
2.59077e-11
2.46372e-11
3.61009e-11
3.99545e-11
4.6082e-11
6.30912e-11
4.69059e-11
9.53345e-11
2.29462e-12
1.31118e-10
-1.35549e-10
1.69646e-10
-4.7392e-10
1.90133e-10
-1.22095e-09
1.00485e-10
-2.70738e-09
-2.31344e-10
-5.42017e-09
-1.03768e-09
-1.00938e-08
-2.03806e-08
-3.13896e-08
-1.78393e-08
-4.67207e-08
-2.99418e-08
-6.66173e-08
-6.28162e-08
-7.02193e-08
-9.01307e-08
-5.21585e-08
2.71165e-07
6.10734e-07
2.45153e-08
1.20474e-06
2.99826e-06
4.758e-06
7.26413e-06
9.97092e-06
7.18348e-06
1.30193e-05
1.0184e-05
1.60592e-05
1.15927e-05
5.52647e-06
1.88588e-05
-9.36803e-06
-0.000103481
-0.000192493
-4.01067e-05
-0.00033008
-0.000717039
-0.00104439
-0.000530183
-0.00145945
-0.00207577
-0.00258721
-0.00272224
-0.00298307
-0.00308866
-0.00300106
0.00114172
0.00515371
-0.00217381
0.011906
-0.000233093
0.0224126
0.0615015
0.0919644
0.0377975
0.1317
0.246519
0.325554
0.181505
0.417441
0.649182
0.788875
1.09571
0.520312
0.934587
0.630997
1.0799
0.745092
1.21746
0.8572
1.33963
0.961357
1.43934
1.0516
-6.32218e-11
1.51095
1.12267
1.55158
1.91618
1.17094
0.773767
0.821445
0.49251
0.53386
1.91016
2.17753
0.28744
2.09721
2.25108
0.319572
0.151972
2.10482
2.08688
0.174564
0.0712047
1.89049
1.77484
0.0856091
1.55357
1.35073
0.0282264
0.0365214
1.13882
0.905678
0.00830284
0.0125673
0.733434
0.527471
0.000696381
0.408456
0.261092
0.00260683
-0.00131677
0.191693
0.105456
-0.00060552
0.0720828
0.0315425
-0.00140606
-0.00114162
0.0189873
0.00453274
0.0097971
-0.00128616
0.000345728
-0.00284489
-0.0027737
-0.00264353
-0.00294742
-0.00197331
-0.00239871
-0.0011702
-0.00154881
-0.000543543
-0.000792352
-0.000180907
-0.00030695
-2.46243e-05
-7.26553e-05
2.28644e-05
9.66452e-06
2.53709e-05
2.54428e-05
1.91375e-05
2.15391e-05
1.05692e-05
-0.000956983
1.34594e-05
-0.000893252
-0.000786575
-0.000837467
7.6994e-06
2.61356e-06
-0.000808817
-0.000362455
-0.00054829
1.39073e-06
5.63455e-09
-0.000635803
0.000150538
-0.000419234
0.000717896
-2.31013e-07
-2.92681e-07
-0.000184891
0.00128961
-2.78704e-07
-1.71492e-07
7.62861e-05
0.00183048
0.000347778
0.0023006
-1.24267e-07
-4.3943e-08
-0.000198522
0.000603552
0.00267196
0.000829401
0.00292822
-2.28064e-08
-4.03086e-10
-7.6314e-09
4.14548e-09
3.04222e-09
3.35382e-09
0.00101014
0.00305981
4.08224e-09
3.4993e-09
0.00113848
0.0030922
1.83528e-09
0.00120774
0.0029864
2.36241e-09
0.00123193
0.00277061
6.6625e-10
0.000412462
0.00119711
0.00248124
0.00134631
1.05861e-09
0.0011108
0.00215234
0.00435405
0.00359328
0.00669787
0.00530344
0.00918558
0.00701315
0.0113397
0.00837935
0.0127059
0.00523751
0.00606391
0.0038282
-0.000512
-0.00022088
-0.000176687
-4.8284e-05
-2.56655e-05
5.47012e-06
1.1272e-05
1.03896e-05
1.05243e-05
5.80047e-06
5.07443e-06
1.84423e-06
1.26905e-06
1.59181e-07
-3.36614e-08
-1.49675e-07
-1.6915e-07
-9.73356e-08
-8.84443e-08
-3.31593e-08
-2.30538e-08
-1.0152e-07
-3.13116e-09
1.99987e-10
2.25088e-09
2.45108e-09
1.35727e-09
1.17837e-09
0.00430103
0.00274045
1.26977e-10
3.86643e-10
2.40949e-10
6.38903e-12
-2.69841e-11
5.47164e-10
2.99128e-10
0.00299353
0.00192198
2.18644e-05
-3.33052e-11
-3.12364e-11
-3.05699e-11
-4.99847e-11
-3.96997e-11
-3.32235e-11
0.00204723
0.00132118
-1.51388e-11
-1.14875e-11
1.98444e-11
4.99459e-10
-1.38901e-11
-8.06913e-12
-2.57613e-12
-1.05776e-12
0.00137637
0.00202544
0.000891339
4.86142e-13
6.21438e-13
-1.08239e-12
2.79735e-13
1.46449e-13
7.58778e-13
7.22853e-13
3.71891e-13
3.22699e-13
6.24246e-13
2.55717e-13
6.36585e-14
3.07316e-14
1.79273e-13
7.38458e-15
-1.07715e-14
-1.09716e-14
-6.38546e-15
-9.88152e-15
-4.63722e-15
-3.29639e-15
-8.52772e-15
-2.0537e-15
-1.56075e-16
8.34844e-17
-1.12981e-15
1.92389e-16
1.55568e-16
0.00090822
0.000590802
-4.87195e-16
1.32005e-16
5.00178e-17
3.98183e-13
2.51214e-13
0.000587923
0.000385285
0.000368725
0.000241215
0.000219745
0.000144841
5.98218e-14
1.5703e-14
5.18136e-13
0.00012465
3.0279e-17
1.63396e-18
8.28523e-05
-1.24464e-14
-1.31721e-14
0.000246712
6.72852e-05
-8.36264e-15
-5.83746e-15
-1.19794e-14
-3.29654e-15
-8.9844e-15
-5.70415e-16
-1.58218e-18
-2.60109e-18
1.1901e-10
-1.51363e-15
-5.77693e-15
4.51509e-05
0.0105618
-0.000422813
1.59076e-05
2.12961e-05
1.73857e-05
1.83841e-05
1.72163e-05
1.13214e-05
1.61351e-05
-5.26601e-07
1.37669e-05
-1.78636e-05
9.14934e-06
-4.10975e-05
1.64647e-06
-7.01418e-05
-8.82021e-06
-0.000103544
-2.22121e-05
-0.000138816
-3.82754e-05
-0.00017251
-5.59934e-05
-0.000201025
-7.37912e-05
-0.000220913
-8.98819e-05
-0.000229545
-0.000102384
-0.00022629
-0.00010998
-0.000209971
-3.57663e-05
-0.000111444
-0.000184923
-0.00010708
-0.000152983
-9.72561e-05
-0.000118779
-8.36268e-05
-8.58283e-05
-6.79634e-05
-5.98243e-05
-5.17754e-05
-3.77665e-05
1.98413e-05
6.43256e-05
0.000390116
0.000455186
0.000102204
0.000496408
0.00147485
0.00143778
0.000513451
0.00135494
0.00321812
0.00284809
0.00123746
0.00245481
-4.63276e-05
0.00109741
0.0020626
0.0041402
0.00332438
0.00169086
0.00260914
0.00467956
0.00353166
0.0058171
0.0042354
0.00260957
0.00302138
0.0045372
0.0031377
0.00211378
0.00213167
0.00144992
0.001426
0.000976436
0.00093829
0.00442064
0.000646139
0.000606748
0.000420724
0.000385153
0.000516869
0.000318097
0.000239993
0.000192144
0.000235105
0.00014683
0.000113931
-0.000313581
8.82034e-05
6.63283e-05
-2.21555e-18
-9.59202e-19
-1.31004e-18
5.20233e-05
3.45751e-05
-1.80826e-19
0.00520516
-0.00128469
-4.31943e-16
-3.08715e-15
2.34386e-05
-3.49447e-19
0.00202262
-0.00159766
3.79189e-05
3.01319e-05
-6.9378e-20
3.99034e-20
2.99266e-15
0.000423922
1.69159e-05
0.000270807
-0.00154372
1.135e-16
-1.27263e-15
3.91597e-20
2.12986e-20
-0.00058811
-0.00131032
2.12896e-05
1.71415e-05
2.24205e-05
1.15952e-05
1.55525e-05
-7.30512e-08
-0.000933151
-0.0010329
-0.000974058
-0.000778918
-0.000588625
-0.000390722
-0.000213762
-0.000121824
-0.000247054
-6.42866e-05
-1.53734e-05
-2.98514e-06
7.74109e-06
6.92624e-06
6.09036e-06
4.17698e-06
5.31266e-06
2.45087e-06
1.37278e-06
4.56279e-07
1.62868e-07
-6.5035e-08
-7.69101e-08
-7.47919e-08
-5.11625e-08
-2.91839e-08
-1.53654e-08
-3.19315e-08
-4.27119e-09
-7.21952e-09
-1.82063e-08
2.68629e-16
-2.77686e-16
7.87899e-06
1.29174e-05
7.77247e-06
1.01076e-05
-0.00040406
9.57926e-06
1.582e-20
3.30691e-21
5.09865e-06
6.43778e-06
7.31086e-06
1.56677e-05
-2.85021e-09
-9.41757e-09
2.4819e-16
1.49697e-16
1.8078e-16
3.27536e-06
4.02068e-06
5.2595e-06
4.06544e-06
2.46675e-05
0.00728983
-0.000174716
-2.0862e-09
2.01154e-06
-2.88846e-18
1.48224e-21
-5.40788e-22
-3.1169e-22
-3.81926e-22
0.00223637
-4.5782e-22
2.06183e-06
2.46373e-06
-7.81541e-10
-4.39817e-09
8.89482e-17
2.15415e-17
4.12626e-06
2.83782e-06
2.22164e-06
-3.12714e-22
-9.12186e-23
1.59195e-06
1.27263e-06
1.48227e-06
-0.00275721
0.194189
7.45081e-11
-1.74744e-09
5.69501e-10
4.427e-18
-4.24553e-18
7.70664e-07
8.76042e-07
1.60265e-06
9.27585e-07
1.62705e-06
5.08771e-07
1.50496e-06
1.1933e-06
1.63043e-06
-5.00757e-23
4.08386e-24
8.86599e-07
-1.08872e-08
6.36617e-10
5.291e-07
2.90725e-07
-3.79e-18
-2.19891e-18
3.2404e-10
-5.14629e-10
0.0203409
1.30328e-10
6.30112e-07
1.12461e-06
4.73957e-07
7.16966e-24
5.19012e-24
-8.26671e-08
1.10791e-05
4.83318e-06
6.50593e-06
2.63075e-06
3.34842e-06
1.22598e-06
1.43123e-06
4.39219e-07
4.20695e-07
7.96899e-08
2.59997e-08
-3.44982e-08
-8.12622e-08
-4.78033e-08
-7.09813e-08
-3.38845e-09
2.97083e-07
1.63574e-07
-1.21711e-18
-2.57439e-19
-2.86854e-18
2.94181e-10
-1.10828e-11
-2.45663e-09
-9.8297e-10
-5.46021e-09
-2.74209e-09
-8.03757e-09
-4.77794e-09
-8.30297e-09
-5.9958e-09
9.47361e-10
-3.11503e-09
2.38109e-08
7.74926e-09
6.19124e-08
2.81019e-08
1.05479e-07
5.52906e-08
1.33773e-07
7.6535e-08
2.15168e-07
1.07578e-07
8.14477e-08
6.12405e-06
1.56567
1.32957
-3.19169e-08
-4.04334e-08
-1.30534e-09
1.60018e-09
-2.66384e-15
-9.86025e-16
-8.066e-15
-4.46951e-15
-1.42246e-14
-1.04784e-14
-1.49228e-14
-1.49353e-14
1.03888e-11
3.27149e-07
2.49125e-07
4.21466e-24
7.3758e-24
1.18406e-24
1.90844e-24
3.00529e-26
2.06222e-25
-1.42866e-08
-1.47769e-08
-3.12751e-08
2.36217e-08
1.83739e-09
-1.25128e-09
-5.44526e-19
-1.80796e-18
4.2398e-08
1.64234e-07
9.07657e-08
8.66872e-08
-9.1244e-26
-3.52431e-09
-2.4109e-09
4.81724e-08
-6.14931e-26
-2.87571e-07
-9.9077e-08
1.67034e-07
1.28777e-07
4.0751e-06
-9.33184e-26
4.4003e-08
-4.04781e-09
1.74065e-10
1.06519e-09
-5.79552e-10
2.16561e-09
1.86741e-09
3.22543e-09
1.51922e-09
1.85177e-09
4.36936e-09
1.99816e-09
5.4325e-09
1.91743e-09
6.15342e-09
1.64237e-09
6.13089e-09
1.14814e-09
3.09743e-12
-2.70246e-10
4.76127e-10
-5.60263e-10
-3.13895e-10
-3.74318e-10
-7.82093e-10
-4.00031e-10
-1.22184e-10
-9.57608e-11
-1.00098e-11
5.84145e-12
-9.51153e-10
1.0918e-11
1.42447e-11
6.34114e-12
6.2092e-12
1.64814e-11
5.30044e-12
1.02801e-12
3.26009e-13
1.69376e-11
6.09987e-10
-2.69118e-13
-4.49439e-13
5.69892e-12
4.96403e-08
2.63751e-08
-1.59341e-19
-9.06823e-19
-6.5679e-07
-2.91027e-07
-1.38152e-06
-4.3751e-26
8.38867e-08
1.00463e-07
6.54765e-08
9.3196e-08
4.79535e-08
-2.16245e-13
-2.15001e-13
1.2251e-09
1.76032e-09
2.67605e-08
1.4241e-08
9.64843e-21
-3.69701e-19
-5.48458e-26
6.34867e-08
-6.22942e-14
-4.13607e-14
-1.91631e-13
-1.78617e-14
-1.4447e-13
3.87158e-15
1.21582e-14
1.44016e-14
-8.76763e-14
0.0173576
0.0183799
0.0252209
0.0253552
0.035054
0.0328768
0.0460299
0.0398526
0.0565604
0.0448966
0.0646211
0.0463722
1.77227e-06
5.39284e-10
1.06513e-10
0.00485973
-1.04592e-06
-5.16399e-07
-1.18411e-07
-2.42277e-07
-4.27278e-08
-1.07371e-07
-3.59802e-07
-1.76231e-07
-4.39116e-08
-8.14665e-08
-2.2292e-07
-1.13041e-07
-2.36216e-07
-1.28713e-07
1.10373e-20
0.0305156
-1.39187e-07
-1.00423e-07
5.91036e-15
5.19113e-15
8.20413e-10
2.34166e-10
4.14457e-08
1.06708e-15
4.19241e-16
-7.68771e-14
-9.37092e-27
3.30506e-08
1.0999e-09
3.99517e-10
0.0680127
0.0452584
6.37757e-10
1.12002e-09
2.71925e-08
-2.29461e-08
-5.4392e-08
1.4228e-08
7.59537e-09
-7.28636e-19
4.82013e-20
-7.83763e-20
5.88194e-20
6.52018e-20
3.31707e-20
4.94193e-20
1.04961e-20
2.26579e-20
9.54563e-22
5.31046e-21
-9.5325e-22
-3.12996e-22
-6.88662e-22
-8.07692e-22
-2.95659e-22
-8.31961e-22
-4.8495e-22
-7.51306e-22
-6.50239e-22
4.08048e-22
-6.38249e-23
-7.48187e-24
-7.0601e-22
3.17149e-21
1.30473e-23
1.13916e-23
-3.21951e-22
8.06001e-21
5.58571e-24
2.555e-24
1.141e-21
1.53872e-20
2.86622e-25
2.33717e-09
1.73785e-09
2.65151e-09
-1.63632e-25
5.40307e-20
-8.56052e-20
-1.66191e-26
1.30476e-09
5.80156e-10
8.23281e-11
1.67822e-10
-9.11251e-12
1.80379e-11
-1.82902e-11
-1.37496e-11
-1.25399e-11
-1.20902e-11
-5.5734e-12
-6.97904e-12
-1.59448e-12
-2.54889e-12
-7.41695e-12
-1.7563e-13
-3.39748e-12
-6.64738e-12
-3.97935e-12
-5.38684e-12
-3.95389e-12
-3.16373e-12
-3.30475e-12
7.06197e-13
-2.48508e-12
5.87666e-12
-1.88113e-12
-1.18086e-12
1.19166e-11
7.76632e-13
1.81116e-11
3.21376e-12
2.32351e-11
3.6143e-11
5.84482e-12
2.59455e-11
5.6306e-11
4.47659e-11
2.60086e-11
3.18815e-11
-1.0256e-12
7.41255e-10
1.30309e-11
-3.14816e-11
1.852e-11
-7.85884e-11
2.81374e-12
-1.22859e-10
-1.43591e-11
-1.57958e-10
2.42327e-09
1.86334e-09
-3.02485e-10
4.07969e-08
-3.12356e-11
-1.7749e-10
-4.81382e-10
-4.18152e-10
-1.72389e-25
-1.80161e-10
-3.22123e-10
-4.297e-10
-2.31945e-10
-1.9512e-16
-3.13246e-16
-1.38426e-16
-3.40087e-16
-5.13218e-16
-3.31582e-16
-1.09857e-16
-7.24243e-17
-3.77906e-18
6.89867e-18
-3.64493e-17
1.30534e-17
6.93058e-18
6.33994e-18
1.5154e-17
5.27549e-18
9.66717e-19
3.04273e-19
3.60368e-18
-1.77631e-19
-2.80816e-19
-2.6996e-19
-4.48822e-19
-2.42527e-19
-6.99822e-20
-3.92025e-20
4.07682e-21
2.17287e-20
-2.17707e-10
-4.19098e-11
8.87838e-10
1.28445e-09
5.38792e-09
5.45171e-09
1.55285e-09
5.07106e-09
1.17563e-08
8.97191e-09
4.3817e-09
6.2155e-09
7.84057e-09
4.05381e-09
3.87612e-09
8.88595e-10
2.25739e-09
-1.61828e-09
-1.78109e-08
-2.02926e-08
-3.42766e-09
-2.07464e-08
-6.97689e-08
-6.00063e-08
-1.49715e-07
-1.12312e-07
-4.88792e-08
-8.00865e-08
-3.78652e-08
-5.35507e-08
-6.61876e-26
1.43796e-24
3.25191e-10
6.69223e-11
3.89278e-12
-2.93759e-11
-2.36702e-11
-1.56405e-11
-8.8449e-12
-2.83631e-12
-8.98081e-13
3.75092e-13
3.63824e-13
2.84968e-13
1.72168e-13
6.4864e-14
2.37024e-14
8.88496e-14
4.7917e-15
3.93429e-14
-5.15508e-15
-2.2126e-15
1.38667e-14
-5.40737e-19
1.49991e-08
-1.36531e-07
6.05578e-12
8.30154e-21
2.35981e-20
2.14856e-08
-2.46446e-26
-7.45669e-26
-4.8072e-22
7.46045e-09
1.31902e-08
3.99932e-09
3.88468e-09
2.04521e-09
-1.23849e-25
-1.98683e-25
-4.31326e-26
-3.0805e-15
2.61125e-15
4.60594e-20
2.58488e-20
2.72177e-20
5.53902e-28
1.13313e-27
-1.121e-17
2.53137e-21
7.52734e-21
-2.77759e-08
-3.3949e-08
2.4487e-07
7.88755e-08
-2.08906e-07
2.03659e-07
0.0669157
0.0976179
0.0420128
8.25863e-14
1.56344e-13
1.74928e-13
8.91919e-14
6.52514e-14
1.5176e-14
4.88709e-15
-2.586e-15
7.43801e-17
-2.23485e-15
-1.93905e-15
-1.21761e-15
-1.34654e-15
-3.98008e-16
-5.80882e-16
-6.7231e-17
1.31386e-20
0.000992162
7.57862e-28
6.19966e-28
-3.5407e-15
0.0968312
0.137052
3.12125e-09
-1.40001e-09
-1.93963e-08
-1.98841e-08
-2.33229e-08
-9.71453e-09
2.47933e-08
4.58853e-21
4.06501e-21
-1.06819e-08
-7.69035e-10
3.53422e-08
3.94946e-08
4.39808e-09
3.87416e-08
1.90331e-09
-1.55347e-16
-3.34043e-26
-7.32682e-26
2.22454e-20
2.82637e-07
1.35987e-08
1.27125e-09
2.10582e-10
0.470978
1.59906
-6.63892e-06
1.58775e-16
-0.000147576
9.1436e-21
-3.193e-05
-2.89744e-08
1.81034e-08
-2.26781e-08
-9.61299e-10
-2.26332e-13
-3.05494e-07
0.0274521
1.69257e-08
1.11308e-08
8.52835e-09
-9.49557e-14
9.7195e-12
8.04422e-12
-2.40858e-11
-6.95303e-12
-9.74031e-11
-4.50289e-11
-1.92933e-10
-9.93409e-11
-2.38015e-10
-1.39333e-10
-2.16927e-10
-3.07929e-10
1.39504e-10
6.17525e-10
2.72226e-09
5.88534e-09
1.18593e-09
5.45849e-09
2.72482e-09
7.73197e-09
4.19979e-09
7.61617e-09
4.40866e-09
5.35964e-09
7.13679e-09
3.71691e-09
-7.20265e-09
-2.39912e-08
2.16831e-09
-7.58591e-08
-1.65849e-07
-2.77678e-07
-5.37747e-07
-1.93677e-11
-1.38669e-07
0.000454585
4.62673e-06
0.000160714
0.137209
0.187746
0.190846
0.251319
0.259992
0.328934
-3.01297e-07
6.78703e-09
1.12613e-08
-1.47094e-08
-4.98215e-09
-1.51364e-26
1.80439e-27
3.19343e-20
4.20804e-20
-2.27547e-19
-3.76425e-20
-2.36294e-15
-1.31045e-15
-1.53997e-15
-6.04475e-27
1.43051e-28
7.4523e-29
1.00212e-09
1.06415e-09
-4.08955e-26
1.20221e-17
1.12283e-21
-1.17138e-08
5.673e-09
4.2288e-09
4.94546e-07
-3.60595e-07
-1.9063e-07
0.346616
2.55867e-08
7.08795e-09
1.00614e-13
2.23769e-13
4.8355e-21
6.91665e-09
3.49396e-08
0.023407
0.0146789
1.10895e-05
1.73216e-07
-9.21807e-19
-3.92143e-19
6.01804e-22
0.421002
0.000422473
0.000163899
5.67214e-09
8.77896e-09
1.83528e-20
7.69421e-09
2.96785e-08
2.84507e-09
2.06386e-09
-1.29914e-29
-1.47987e-29
0.0112147
0.00668859
-0.00182498
3.48324e-09
-8.71805e-09
-4.94531e-07
5.20923e-10
2.46067e-27
-1.42525e-17
-2.54148e-16
8.90895e-10
-5.73032e-23
-8.46412e-09
-7.68488e-16
-2.10001e-16
1.78342e-27
5.48189e-10
1.50062e-09
0.00441503
0.0024578
0.00128692
-3.7124e-12
-3.26466e-07
7.4265e-09
2.40459e-08
2.71671e-27
5.47859e-08
2.07746e-08
-3.66679e-07
-2.07285e-07
2.40698e-20
0.451989
0.000630373
0.00131872
0.000170037
4.10004e-06
7.65211e-08
5.70863e-08
1.45445e-17
1.64807e-17
-3.27302e-10
-5.33242e-17
-3.36329e-16
2.67784e-10
6.33733e-28
3.56572e-09
-7.83802e-30
-6.07318e-30
-1.40654e-29
-4.51469e-30
-1.23992e-29
-4.33449e-30
-2.09576e-16
-1.2935e-22
-7.02643e-23
0.527
1.50935e-10
7.98875e-11
1.95075e-09
-3.23223e-30
-1.00128e-29
-1.55509e-31
1.87197e-08
4.1369e-08
1.40426e-09
9.91586e-10
1.35819e-09
5.77408e-13
8.19615e-13
-6.10306e-14
-1.86649e-18
-1.11857e-18
-1.26747e-19
-5.67759e-19
-0.000473297
-3.47461e-07
-1.01111e-06
-7.00237e-07
-1.84946e-06
-1.35908e-06
-3.27106e-06
-2.5427e-06
-5.53218e-06
-4.60817e-06
-9.00415e-06
-8.11868e-06
-1.4236e-05
-1.38557e-05
-2.20253e-05
-2.26212e-05
-3.34566e-05
-3.52809e-05
-4.84201e-05
-5.32583e-05
-6.41878e-05
-7.88933e-05
-7.8996e-05
1.87782e-05
0.000109187
-8.46191e-05
0.000314596
0.000958865
0.00184576
0.000734348
0.00340239
0.0058792
0.00994108
0.00604202
0.0163627
0.0227254
0.0354581
0.0434416
0.064845
0.0540579
0.0946823
0.102888
0.144507
0.135279
0.198566
0.196236
0.261773
0.267269
0.342017
0.352522
0.437716
0.395352
0.490376
0.548898
0.597135
0.674274
0.71507
0.41556
-5.00299e-05
-1.24443e-05
0.812119
0.839916
-5.7161e-06
0.692516
0.787341
0.967287
0.875869
0.655231
0.702153
0.95314
0.735479
1.01433
0.752841
1.05529
0.75463
1.07325
0.739489
1.07114
0.707377
-3.23995e-06
1.04338
0.718794
0.660187
0.470536
0.480033
1.30011
0.992822
0.600865
0.357693
9.97785e-07
4.31012e-09
6.1719e-09
2.15708e-28
2.79871e-10
-3.94245e-17
4.0198e-17
1.40713e-08
-1.20282e-20
6.82269e-10
1.36358e-10
-2.2434e-29
-1.00202e-16
-3.65645e-16
6.90531e-18
-7.70855e-23
2.585e-09
-2.2681e-08
-7.1859e-08
-1.16378e-07
-1.98903e-07
-6.09532e-07
4.55844e-18
0.00767166
0.448258
-1.02665e-14
0.185264
0.000284838
0.000678348
5.17271e-14
0.000163504
5.06208e-05
1.58567e-07
4.57883e-08
2.62216e-08
-2.80984e-20
-2.86677e-19
-6.0921e-23
-1.45998e-22
-1.45714e-23
8.16993e-08
3.40251e-08
7.22614e-09
1.35726e-08
2.17813e-09
5.12299e-09
-3.10303e-07
-1.82884e-07
0.54173
0.576025
5.83188e-20
7.48974e-06
-8.44708e-09
-3.92404e-09
-2.9552e-09
1.19624e-05
-1.14133e-07
-1.05353e-07
-6.04867e-08
-5.90766e-08
-3.10141e-08
-3.21692e-08
-1.54361e-08
-1.70723e-08
-7.47927e-09
-8.74834e-09
-3.51857e-09
-4.36175e-09
-1.60701e-09
-2.10961e-09
-9.29492e-10
-7.11577e-10
-9.92989e-10
-2.21418e-09
-1.0969e-09
-4.75012e-08
-3.05137e-10
-1.85198e-09
-9.78494e-10
-0.000131556
0.223303
-1.43152e-16
-1.18143e-16
-5.57794e-17
-5.77944e-17
-1.48495e-17
-7.28278e-05
0.00323858
0.0178794
1.98592
-6.34691e-18
0.000183712
0.00010527
-2.50776e-07
-2.47561e-07
0.30943
0.161188
0.53308
6.35208e-10
8.0754e-10
1.04067e-12
7.55044e-13
9.19052e-13
1.84937e-07
5.37822e-07
-2.24656e-19
-2.0824e-30
-8.12982e-30
1.24344e-10
-1.93894e-17
6.77675e-19
-1.43825e-16
-3.18572e-16
-7.6976e-20
0.0475027
-2.91226e-10
3.0561e-11
1.03087e-11
5.47393e-05
1.15643e-05
6.09381e-06
1.89507e-08
0.00011332
0.000331693
3.47868e-06
3.55801e-06
-2.23639e-18
-1.185e-09
-5.55268e-10
4.69879e-10
1.79426e-09
1.41745e-10
6.88979e-11
2.93444e-09
-3.58978e-29
1.40876e-29
-2.25023e-29
2.08692e-20
-6.315e-20
2.96294e-17
1.67677e-17
-2.99884e-19
-1.72988e-16
-2.39908e-16
-3.01521e-08
0.017947
0.0170785
4.46778e-20
-2.58857e-13
-1.61235e-18
1.75922e-18
-7.01378e-24
1.38833e-24
-2.49274e-06
-6.33337e-06
0.431346
0.50856
1.66929e-13
-1.30327e-07
7.74073e-07
1.43381
0.13082
0.0567168
-3.04792e-12
4.74155e-08
2.57822e-08
-1.25015e-30
-6.33459e-30
-1.29269e-29
-1.21904e-29
3.89345e-29
1.61315e-29
3.25585e-28
2.27254e-28
8.04389e-28
6.34471e-28
5.87708e-28
7.54243e-28
-6.39466e-27
-3.44894e-27
-3.00523e-26
-2.13334e-26
-5.77466e-26
-4.65634e-26
4.3894e-27
-2.98284e-26
6.01187e-25
3.28291e-25
2.07851e-24
2.89342e-24
3.85368e-24
3.36513e-24
-8.43005e-24
-2.26954e-24
-6.79443e-23
-1.04135e-22
-2.20789e-22
-1.63393e-22
-1.88457e-22
-8.59294e-23
2.07102e-21
1.04973e-21
7.86498e-21
5.22957e-21
1.38868e-20
1.75517e-20
-6.63577e-21
6.3661e-21
-1.59787e-19
-2.92222e-19
-7.29587e-19
-4.93444e-19
-9.8005e-19
-1.10679e-18
2.58127e-18
6.79378e-19
1.68113e-17
2.80484e-17
9.15716e-18
5.64526e-17
7.48538e-17
5.70487e-17
1.35429e-17
-5.92144e-16
-1.1285e-15
-3.15384e-15
-4.60652e-15
-2.09008e-15
-6.12526e-15
-6.98689e-15
1.01877e-14
2.81306e-14
1.35313e-13
2.17226e-13
4.08232e-13
5.24945e-13
2.91767e-13
3.19699e-13
6.40121e-13
1.73332e-13
-5.55247e-13
-1.99973e-15
7.26688e-13
-2.0003e-12
-1.09793e-11
-1.79376e-11
-4.58339e-12
-2.67774e-11
-4.78273e-11
-5.81451e-11
-3.72297e-11
-6.67161e-11
-8.53281e-12
7.60359e-11
-6.96463e-11
2.31345e-10
1.11151e-09
1.72717e-09
4.87803e-10
2.47644e-09
4.41819e-09
5.17342e-09
4.7442e-09
2.03175e-09
8.64308e-10
-2.41606e-08
-4.62034e-08
-9.9097e-09
-4.09867e-09
-7.69246e-08
-2.00387e-07
-2.59527e-07
-4.00066e-07
-4.41348e-07
-1.16809e-07
-2.82711e-07
5.78602e-08
2.45684e-06
4.31414e-06
6.83382e-07
6.77112e-06
1.63945e-05
2.0915e-05
9.76338e-06
2.50204e-05
3.60002e-05
3.7208e-05
2.17838e-05
-6.75073e-06
1.16662e-06
1.31815e-05
-0.00018208
-0.000310115
-5.43079e-05
-8.84337e-05
-0.000876432
-0.00116741
-3.24786e-29
-3.3762e-19
-1.20502e-09
-2.55154e-12
-2.98986e-12
1.86769e-12
-2.24438e-12
-9.78183e-13
-1.34211e-12
-1.32741e-12
-7.44507e-13
-9.82749e-13
-3.72304e-13
-3.6875e-13
-5.76784e-13
-1.60763e-13
-3.04442e-13
-5.19261e-13
-3.83853e-13
5.77146e-13
-5.80067e-14
3.06534e-12
1.06245e-12
6.65604e-12
2.99446e-12
9.46441e-12
4.87387e-12
7.2079e-12
5.53359e-12
-8.32973e-12
1.90178e-13
-3.8337e-11
-1.32596e-11
-7.79892e-11
-3.39695e-11
-3.40951e-07
-5.33009e-19
-1.30775e-18
-1.19923e-09
-6.9945e-10
-5.01223e-10
-3.78712e-10
-1.81e-09
-2.48883e-10
-1.96709e-10
-1.71083e-10
-1.14995e-10
-1.60921e-07
-1.85672e-07
-6.71594e-15
-1.21777e-14
-8.02296e-12
0.449259
0.578308
3.6747e-10
4.30775e-10
1.25023e-05
1.11066e-05
3.83776e-09
1.27479e-08
9.98788e-13
-1.02809e-06
-5.3267e-17
-2.12009e-17
-3.75927e-17
1.8186e-09
0.00015256
-1.60567e-11
-1.05487e-06
-1.66093e-06
-6.74105e-19
-3.13415e-19
-1.57268e-19
-1.01482e-19
-3.51155e-17
-2.05704e-17
-1.2198e-17
-2.21446e-13
-1.86797e-11
5.60372e-10
2.0235e-12
-2.66703e-29
-3.50989e-29
1.79617e-20
1.20687e-20
1.70472e-17
2.02522e-17
8.57846e-18
-1.67934e-16
-1.07316e-16
-7.93607e-30
-1.5342e-10
7.51421e-11
1.16903e-12
1.74802e-09
1.3666e-09
7.13113e-11
3.46194e-11
2.10398e-24
9.68079e-25
1.08614e-24
-1.07891e-10
-5.30467e-11
6.26794e-16
1.30939e-15
1.07864e-16
1.97404e-15
-2.40853e-07
-1.99188e-11
1.20577e-08
4.60751e-09
8.29246e-11
3.92511e-13
-6.69758e-11
-1.59306e-11
1.2995e-10
4.14992e-11
1.5238e-05
-2.84895e-12
-4.6374e-12
1.77789e-06
5.34832e-06
1.72703e-07
-6.7991e-26
0.0417836
3.43981e-05
0.000151835
-3.37827e-05
0.000630519
0.000320276
0.000977332
0.000523339
0.00132086
0.000731787
0.00160767
0.000912784
0.000394867
0.000506193
-1.9643e-06
-2.47699e-06
-0.00223669
-0.00260986
-3.57631e-26
1.41274e-28
-1.72464e-17
1.92134e-17
4.5593e-10
2.5467e-09
-4.8211e-06
-6.49063e-06
-1.35297e-18
-1.13863e-18
-1.93107e-18
6.0306e-18
3.56771e-19
3.30103e-07
9.73705e-07
-5.76427e-16
-0.00183373
0.0127913
0.0197217
-6.98353e-27
-1.23556e-26
3.71485e-28
-8.07267e-28
6.4419e-28
6.58737e-28
0.380023
0.433501
0.587251
2.35192
5.30821e-19
1.08675e-18
1.22772e-18
0.250971
-3.50142e-15
-8.46182e-15
2.92542e-11
-5.2187e-13
-4.39059e-13
-1.28709e-12
-1.2842e-12
-2.20551e-12
-2.78473e-12
8.47566e-14
-3.0019e-12
1.79262e-11
-2.88131e-12
-5.06385e-12
-2.77374e-12
-5.92001e-12
-2.47297e-12
-5.89548e-12
-6.59916e-12
-1.91019e-12
5.638e-07
1.6694e-09
7.48122e-10
1.37961e-09
5.92733e-10
1.07259e-09
4.41797e-10
7.82019e-10
3.08399e-10
5.32116e-10
2.44216e-10
2.00379e-10
3.35597e-10
8.95792e-10
5.46664e-10
1.47031e-09
8.6518e-10
2.35077e-09
1.32842e-09
4.59162e-10
6.68679e-10
1.97471e-09
9.3367e-10
2.83342e-09
1.23937e-09
3.562e-10
3.89915e-10
1.53827e-09
3.4177e-10
2.30128e-11
-7.97227e-11
-7.93782e-11
-1.52229e-10
-6.78889e-11
-1.0694e-10
1.72068e-09
-2.58827e-10
-1.55113e-10
-5.16574e-11
-6.33426e-11
-3.97283e-11
-1.50685e-11
-1.21655e-11
-4.05805e-10
0.428933
0.558102
3.81203e-09
4.17265e-09
1.90427e-10
1.64663e-10
4.5398e-08
2.31276e-08
1.33021e-08
1.11422e-08
6.49851e-09
5.07064e-09
-4.85528e-30
3.00262e-09
-3.56843e-13
3.41169e-12
-5.30971e-12
9.22453e-12
2.36051e-28
1.20174e-10
4.50945e-12
6.95336e-12
-1.69805e-20
3.87232e-22
2.71038e-25
-1.67362e-29
4.26641e-19
3.46554e-19
3.76584e-16
2.43902e-15
-1.06398e-10
1.41112e-10
-3.33732e-10
-5.54569e-12
-1.2812e-12
-9.51668e-14
9.22823e-14
1.37148e-13
1.35993e-13
-4.38499e-26
3.9627e-25
3.22847e-17
1.58379e-17
-9.25315e-11
-6.12108e-11
-2.47888e-11
-3.26264e-11
-1.9417e-11
-2.29972e-11
7.57751e-11
1.33377e-11
0.00655094
5.94791e-14
4.67348e-14
2.35404e-08
1.05665e-08
0.000207206
0.000274038
1.61776e-11
9.69321e-12
3.076e-12
3.21073e-12
1.20355e-11
2.76506e-12
2.75702e-13
-2.45012e-13
1.73846e-12
-1.01895e-12
-5.68218e-13
-8.23534e-13
-1.87121e-12
-1.06857e-12
-3.13375e-13
-2.81974e-13
-1.1972e-12
-2.02682e-13
-1.13414e-12
-6.62819e-14
-9.06052e-13
1.07864e-13
1.19015e-13
1.67762e-13
6.5752e-14
6.88925e-14
-4.89407e-13
1.51117e-14
9.21783e-15
6.03396e-14
8.75767e-16
-3.94772e-15
-6.40958e-15
-8.3551e-15
-8.17675e-15
-2.81296e-15
-3.29676e-05
-4.29654e-05
3.15515e-05
2.59528e-05
-3.22755e-06
-3.44656e-06
1.82241e-14
7.08139e-11
1.10969e-10
-1.54177e-11
8.67195e-18
1.39885e-17
-1.43725e-29
-2.76026e-29
7.7467e-10
6.20761e-10
3.56634e-11
1.73497e-11
1.57536e-11
7.85715e-12
5.8282e-21
1.44349e-21
2.17767e-09
3.54387e-09
4.36305e-20
-2.06588e-21
7.20829e-11
4.58213e-19
6.61636e-16
2.58493e-15
4.58776e-15
3.16942e-15
2.58108e-10
2.04012e-10
8.68436e-10
7.52618e-25
2.73472e-24
-1.75495e-14
-1.6242e-11
5.78069e-16
-9.75696e-11
6.81298e-11
9.59252e-10
-2.1684e-11
-2.35895e-11
-1.47487e-14
-1.11255e-08
0.000105511
0.000144659
0.000326096
0.000176549
7.43435e-05
9.33693e-05
4.43636e-08
2.25829e-08
0.00165735
8.11323e-08
4.55018e-08
1.43021e-07
8.68914e-08
2.37384e-07
1.59195e-07
3.7669e-07
2.81579e-07
2.7893e-11
9.40771e-11
9.9991e-11
2.06626e-10
1.64955e-10
3.26675e-11
2.32647e-10
-1.04625e-09
-1.68137e-09
-5.86753e-09
-6.44284e-09
-1.38238e-08
-1.23406e-08
-1.28841e-08
-1.5692e-09
5.40887e-08
8.4921e-08
2.97547e-07
3.26962e-07
-2.20866e-08
-4.14961e-10
7.49604e-07
6.65048e-07
7.74005e-07
3.33279e-07
5.61086e-07
6.30604e-07
1.84236e-07
4.08273e-07
5.76698e-07
4.79871e-07
8.64503e-07
7.75802e-07
1.26747e-06
1.19289e-06
1.69948e-06
-1.13961e-18
-2.3095e-12
-4.27416e-20
3.79737e-25
-9.67223e-18
-1.45861e-30
2.94686e-31
2.26176e-15
1.37629e-15
-7.37759e-15
-1.45676e-14
5.97346e-21
6.54099e-21
2.95977e-28
-1.0069e-15
-2.08095e-14
-6.92899e-14
-6.72084e-14
-2.5002e-14
-5.45021e-14
-1.62211e-06
-2.64666e-06
8.56742e-09
2.14819e-08
1.57012e-17
3.22688e-24
4.56002e-24
-3.57658e-11
2.39555e-06
5.28053e-06
0.483481
0.663316
-9.66854e-11
-4.50202e-19
5.2936e-15
0.00179958
0.000197131
0.000106428
0.0014627
0.00416927
8.86179e-15
2.7757e-15
0.329882
-2.29318e-18
8.439e-06
1.49808e-05
1.08171e-05
-1.71232e-12
-3.27502e-12
-6.45786e-09
1.7693e-06
2.13628e-06
0.00730708
0.0291613
-1.84778e-29
0.385965
0.509128
0.710463
3.72046e-05
-5.11116e-06
-4.53529e-06
8.75641e-11
8.61979e-11
-9.23636e-15
-0.00369785
-0.00343027
-0.0038709
-0.00288683
4.66012e-28
-4.84042e-12
-3.35838e-06
-2.67671e-06
-3.92699e-06
-8.30182e-06
9.50692e-06
2.07459e-05
-1.54584e-15