/*--------------------------------*- C++ -*----------------------------------*\
  =========                 |
  \\      /  F ield         | OpenFOAM: The Open Source CFD Toolbox
   \\    /   O peration     | Website:  https://openfoam.org
    \\  /    A nd           | Version:  6
     \\/     M anipulation  |
\*---------------------------------------------------------------------------*/
FoamFile
{
    version     2.0;
    format      ascii;
    class       volScalarField;
    location    "864000";
    object      Cg0;
}
// * * * * * * * * * * * * * * * * * * * * * * * * * * * * * * * * * * * * * //

dimensions      [1 -3 0 0 0 0 0];

internalField   nonuniform List<scalar> 
184
(
4.34187e-10
4.34187e-10
4.34258e-10
4.40666e-10
5.29913e-10
1.55961e-09
5.30176e-09
6.01934e-08
0.000569174
0.00406863
0.0104611
0.0188276
0.0280511
0.0373803
0.0464165
0.0549835
0.0630256
0.0705465
0.0775762
0.0841547
0.0903235
0.0961221
0.101586
0.106747
0.111634
0.11627
0.120677
0.12461
0.119594
0.11455
0.109724
0.105098
0.10066
0.0963979
0.0923002
0.0883579
0.0845626
0.0809067
0.0773835
0.0739869
0.0707112
0.0675514
0.0645026
0.0615607
0.0587214
0.0559811
0.0533361
0.0507831
0.0483191
0.0459409
0.0436458
0.041431
0.0392939
0.0372321
0.0352431
0.0333246
0.0314745
0.0296906
0.0279708
0.0263132
0.0247159
0.0231768
0.0216944
0.0202667
0.0188922
0.0175691
0.0162959
0.015071
0.0138929
0.0127601
0.0116712
0.0106247
0.00961944
0.00865394
0.00772696
0.00683718
0.00598352
0.00516406
0.00437913
0.00362662
0.00290474
0.00221319
0.00155147
0.000918043
0.000311818
3.70086e-06
9.05252e-07
3.43297e-07
1.48765e-07
6.31369e-08
2.70862e-08
1.19773e-08
5.34815e-09
5.48202e-09
4.41758e-09
4.7237e-09
4.50955e-09
4.58215e-09
4.79985e-09
5.48821e-09
4.52736e-09
5.25338e-09
5.49104e-09
5.43272e-09
5.20917e-09
4.99312e-09
4.78514e-09
4.58524e-09
4.39325e-09
4.20895e-09
4.03211e-09
3.86251e-09
3.69993e-09
3.54416e-09
3.39497e-09
3.25215e-09
3.1155e-09
2.9848e-09
2.85985e-09
2.74045e-09
2.62641e-09
2.51754e-09
2.41365e-09
2.31457e-09
2.22012e-09
2.13014e-09
2.04446e-09
1.96293e-09
1.88541e-09
1.8117e-09
1.74087e-09
1.67147e-09
1.60122e-09
1.5248e-09
1.44553e-09
1.36458e-09
1.28318e-09
1.20267e-09
1.12429e-09
1.0491e-09
9.77946e-10
9.11446e-10
8.49996e-10
7.93796e-10
7.42878e-10
6.97133e-10
6.56352e-10
6.20244e-10
5.88472e-10
5.60669e-10
5.36461e-10
5.15477e-10
4.97363e-10
4.81785e-10
4.6844e-10
4.57051e-10
4.47374e-10
4.3919e-10
4.32313e-10
4.26578e-10
4.21845e-10
4.17994e-10
4.14922e-10
4.1254e-10
4.10772e-10
4.09554e-10
4.08826e-10
4.08539e-10
4.08644e-10
4.09103e-10
4.09875e-10
4.10926e-10
4.1222e-10
4.13725e-10
4.1541e-10
4.17245e-10
4.19201e-10
4.21252e-10
4.23371e-10
4.25533e-10
4.27716e-10
4.29899e-10
4.32062e-10
4.34187e-10
)
;

boundaryField
{
    bc0
    {
        type            zeroGradient;
    }
    bc1
    {
        type            zeroGradient;
    }
    bc2
    {
        type            zeroGradient;
    }
    bc3
    {
        type            zeroGradient;
    }
    top
    {
        type            zeroGradient;
    }
    bottom
    {
        type            zeroGradient;
    }
}


// ************************************************************************* //
