/*--------------------------------*- C++ -*----------------------------------*\
  =========                 |
  \\      /  F ield         | OpenFOAM: The Open Source CFD Toolbox
   \\    /   O peration     | Website:  https://openfoam.org
    \\  /    A nd           | Version:  6
     \\/     M anipulation  |
\*---------------------------------------------------------------------------*/
FoamFile
{
    version     2.0;
    format      ascii;
    class       volScalarField;
    location    "864000";
    object      Cg1;
}
// * * * * * * * * * * * * * * * * * * * * * * * * * * * * * * * * * * * * * //

dimensions      [1 -3 0 0 0 0 0];

internalField   nonuniform List<scalar> 
184
(
0.000874926
0.000874926
0.000875057
0.000886412
0.00101702
0.00235945
0.0110706
0.0345402
0.057072
0.0678719
0.0756301
0.0811568
0.0851629
0.0881511
0.0904506
0.0922739
0.0937595
0.0950001
0.0960584
0.0969784
0.0977915
0.0985205
0.0991825
0.0997904
0.100354
0.100881
0.101377
0.101752
0.102976
0.104053
0.105086
0.106077
0.107029
0.107946
0.108829
0.109681
0.110504
0.111299
0.112068
0.112812
0.113533
0.114231
0.114907
0.115563
0.116199
0.116816
0.117414
0.117994
0.118558
0.119105
0.119636
0.120151
0.120652
0.121137
0.121609
0.122067
0.122512
0.122943
0.123362
0.123769
0.124164
0.124547
0.124919
0.125279
0.125629
0.125968
0.126297
0.126615
0.126924
0.127223
0.127513
0.127794
0.128065
0.128328
0.128582
0.128827
0.129064
0.129296
0.129517
0.129729
0.129938
0.13014
0.13033
0.13051
0.130682
0.129249
0.125845
0.122504
0.119238
0.116044
0.112924
0.109874
0.106896
0.103987
0.101146
0.0983723
0.0956654
0.093024
0.090447
0.0879335
0.0854826
0.0830932
0.0807645
0.0784954
0.076285
0.0741324
0.0720367
0.0699969
0.0680122
0.0660816
0.0642043
0.0623794
0.0606061
0.0588836
0.0572109
0.0555873
0.0540119
0.052484
0.0510027
0.0495673
0.0481771
0.0468311
0.0455288
0.0442694
0.0430522
0.0418765
0.0407417
0.039647
0.0385919
0.0375753
0.0365901
0.035609
0.0345874
0.0334811
0.0322971
0.0310428
0.0297297
0.0283722
0.0269855
0.0255842
0.0241826
0.0227932
0.0214272
0.0200943
0.0188022
0.0175573
0.0163645
0.0152272
0.0141476
0.0131271
0.012166
0.0112638
0.0104194
0.00963145
0.00889788
0.00821652
0.00758494
0.00700057
0.00646077
0.00596283
0.00550409
0.00508189
0.00469364
0.00433683
0.00400905
0.00370798
0.00343142
0.00317727
0.00294356
0.00272843
0.00253012
0.00234701
0.00217756
0.00202034
0.00187404
0.00173742
0.00160936
0.00148881
0.00137482
0.00126647
0.00116299
0.00106366
0.000967823
0.000874925
)
;

boundaryField
{
    bc0
    {
        type            zeroGradient;
    }
    bc1
    {
        type            zeroGradient;
    }
    bc2
    {
        type            zeroGradient;
    }
    bc3
    {
        type            zeroGradient;
    }
    top
    {
        type            zeroGradient;
    }
    bottom
    {
        type            zeroGradient;
    }
}


// ************************************************************************* //
