/*--------------------------------*- C++ -*----------------------------------*\
  =========                 |
  \\      /  F ield         | OpenFOAM: The Open Source CFD Toolbox
   \\    /   O peration     | Website:  https://openfoam.org
    \\  /    A nd           | Version:  6
     \\/     M anipulation  |
\*---------------------------------------------------------------------------*/
FoamFile
{
    version     2.0;
    format      ascii;
    class       volScalarField;
    location    "864000";
    object      Cg3;
}
// * * * * * * * * * * * * * * * * * * * * * * * * * * * * * * * * * * * * * //

dimensions      [1 -3 0 0 0 0 0];

internalField   nonuniform List<scalar> 
184
(
0.199841
0.199841
0.199804
0.197045
0.176007
0.103676
0.0441052
0.0109599
1.47693e-05
1.66438e-05
1.70783e-05
1.40371e-05
1.17551e-05
9.96262e-06
8.51478e-06
7.31389e-06
6.29413e-06
5.41058e-06
4.63192e-06
3.93575e-06
3.30572e-06
2.72954e-06
2.19779e-06
1.70503e-06
1.24273e-06
8.07419e-07
3.95683e-07
3.1009e-75
7.14103e-07
1.39178e-06
2.0474e-06
2.67212e-06
3.27681e-06
3.86071e-06
4.42574e-06
4.97335e-06
5.50479e-06
6.02113e-06
6.52335e-06
7.01226e-06
7.48862e-06
7.95309e-06
8.40626e-06
8.84865e-06
9.28076e-06
9.70302e-06
1.01158e-05
1.05196e-05
1.09146e-05
1.13012e-05
1.16798e-05
1.20505e-05
1.24138e-05
1.27698e-05
1.3119e-05
1.34614e-05
1.37974e-05
1.41272e-05
1.4451e-05
1.47691e-05
1.50817e-05
1.53889e-05
1.56908e-05
1.59874e-05
1.62789e-05
1.6565e-05
1.68455e-05
1.712e-05
1.73881e-05
1.76492e-05
1.79036e-05
1.81528e-05
1.84012e-05
1.8658e-05
1.89332e-05
1.92084e-05
1.92672e-05
1.72828e-05
1.58218e-05
1.80649e-05
1.37499e-05
9.1825e-06
1.01934e-05
1.3112e-05
1.74273e-05
0.00188653
0.00613202
0.0103138
0.0144189
0.0184468
0.0223982
0.0262738
0.0300745
0.0338009
0.0374538
0.0410337
0.0445415
0.0479776
0.0513428
0.0546378
0.057863
0.0610193
0.0641072
0.0671274
0.0700805
0.0729671
0.075788
0.0785437
0.0812349
0.0838621
0.0864261
0.0889274
0.0913666
0.0937444
0.0960613
0.098318
0.100515
0.102653
0.104733
0.106755
0.108719
0.110627
0.112479
0.114275
0.116017
0.117704
0.119337
0.120917
0.122443
0.123918
0.125349
0.12678
0.12828
0.129899
0.131644
0.133513
0.135491
0.137563
0.139709
0.141912
0.144153
0.146415
0.148683
0.150943
0.153181
0.155388
0.157553
0.15967
0.161733
0.163736
0.165676
0.16755
0.169358
0.171097
0.172769
0.174372
0.175909
0.177381
0.178789
0.180135
0.181421
0.182649
0.183823
0.184944
0.186014
0.187037
0.188015
0.18895
0.189844
0.190701
0.191522
0.192309
0.193066
0.193793
0.194493
0.195167
0.195818
0.196447
0.197056
0.197646
0.198218
0.198774
0.199314
0.19984
)
;

boundaryField
{
    bc0
    {
        type            zeroGradient;
    }
    bc1
    {
        type            zeroGradient;
    }
    bc2
    {
        type            zeroGradient;
    }
    bc3
    {
        type            zeroGradient;
    }
    top
    {
        type            zeroGradient;
    }
    bottom
    {
        type            zeroGradient;
    }
}


// ************************************************************************* //
