/*--------------------------------*- C++ -*----------------------------------*\
  =========                 |
  \\      /  F ield         | OpenFOAM: The Open Source CFD Toolbox
   \\    /   O peration     | Website:  https://openfoam.org
    \\  /    A nd           | Version:  6
     \\/     M anipulation  |
\*---------------------------------------------------------------------------*/
FoamFile
{
    version     2.0;
    format      ascii;
    class       volScalarField;
    location    "864000";
    object      Cw2;
}
// * * * * * * * * * * * * * * * * * * * * * * * * * * * * * * * * * * * * * //

dimensions      [0 -3 0 0 1 0 0];

internalField   nonuniform List<scalar> 
184
(
0.0018661
0.0018661
0.00186598
0.00185913
0.00181466
0.00172303
0.00216411
0.00367466
0.00517843
0.00591239
0.00643946
0.00681507
0.00708751
0.00729088
0.00744743
0.00757168
0.0076729
0.00775751
0.00782964
0.00789243
0.00794784
0.00799762
0.00804282
0.00808662
0.00817203
0.00896283
0.017241
0.0567297
0.0148436
0.00884462
0.00846674
0.00851278
0.00857687
0.00863911
0.00869924
0.00875712
0.00881313
0.00886714
0.00891949
0.00897004
0.0090191
0.00906651
0.00911257
0.00915711
0.00920041
0.0092423
0.00928305
0.0093225
0.00936088
0.00939804
0.0094342
0.00946921
0.00950329
0.00953627
0.00956834
0.00959941
0.00963003
0.0096594
0.0096879
0.00971555
0.00974238
0.00976825
0.0097935
0.00981803
0.0098419
0.00986498
0.0098874
0.00990907
0.00993012
0.00995045
0.0099702
0.00998926
0.0100078
0.0100256
0.0100429
0.0100596
0.0100758
0.0100915
0.0101065
0.0101208
0.010135
0.0101484
0.0101607
0.0101716
0.0101802
0.0100864
0.00986853
0.00965327
0.00944221
0.00923562
0.00903368
0.00883634
0.00864356
0.00845533
0.00827152
0.00809215
0.00791707
0.00774629
0.00757968
0.00741725
0.00725885
0.00710449
0.00695405
0.00680751
0.00666479
0.00652583
0.00639056
0.00625893
0.00613087
0.00600634
0.00588526
0.00576759
0.00565334
0.00554217
0.00543444
0.00532983
0.00522834
0.00512993
0.00503454
0.00494212
0.00485262
0.00476599
0.00468219
0.00460116
0.00452286
0.00444725
0.00437428
0.00430394
0.00423638
0.00417238
0.00410594
0.00402732
0.00399707
0.00395102
0.00387718
0.00379466
0.00370844
0.00362033
0.00353106
0.00344115
0.00335111
0.00326136
0.00317231
0.00308434
0.00299782
0.0029131
0.00283051
0.00275037
0.00267298
0.00259858
0.00252742
0.00245969
0.00239553
0.00233502
0.00227821
0.00222508
0.00217557
0.00212956
0.00208693
0.00204752
0.00201115
0.00197765
0.00194684
0.00191854
0.00189258
0.0018688
0.00184704
0.00182715
0.00180899
0.00179243
0.00177734
0.0017636
0.00175113
0.00173989
0.00172989
0.00172121
0.00171385
0.00170839
0.00170615
0.00170909
0.0017208
0.00174739
0.00179733
0.0018661
)
;

boundaryField
{
    bc0
    {
        type            zeroGradient;
    }
    bc1
    {
        type            zeroGradient;
    }
    bc2
    {
        type            zeroGradient;
    }
    bc3
    {
        type            zeroGradient;
    }
    top
    {
        type            zeroGradient;
    }
    bottom
    {
        type            zeroGradient;
    }
}


// ************************************************************************* //
