/*--------------------------------*- C++ -*----------------------------------*\
  =========                 |
  \\      /  F ield         | OpenFOAM: The Open Source CFD Toolbox
   \\    /   O peration     | Website:  https://openfoam.org
    \\  /    A nd           | Version:  6
     \\/     M anipulation  |
\*---------------------------------------------------------------------------*/
FoamFile
{
    version     2.0;
    format      ascii;
    class       volScalarField;
    location    "864000";
    object      Cw4;
}
// * * * * * * * * * * * * * * * * * * * * * * * * * * * * * * * * * * * * * //

dimensions      [0 -3 0 0 1 0 0];

internalField   nonuniform List<scalar> 
184
(
7.80344e-11
7.80344e-11
7.80467e-11
7.91987e-11
9.524e-11
2.80305e-10
9.52743e-10
1.08151e-08
0.000102273
0.000731055
0.00187955
0.00338274
0.00504003
0.00671648
0.00834044
0.00988022
0.0113258
0.0126777
0.0139415
0.0151241
0.0162332
0.0172757
0.0182581
0.0191861
0.0200646
0.0208973
0.0216824
0.0223427
0.02149
0.0205889
0.019722
0.0188908
0.0180932
0.017327
0.0165905
0.0158819
0.0151997
0.0145426
0.0139093
0.0132988
0.01271
0.0121421
0.0115941
0.0110653
0.010555
0.0100625
0.00958705
0.00912818
0.00868529
0.00825784
0.00784531
0.00744721
0.00706307
0.00669245
0.00633489
0.00599004
0.00565772
0.00533709
0.00502793
0.00472998
0.00444282
0.0041661
0.0038996
0.003643
0.00339595
0.00315814
0.00292929
0.00270911
0.00249734
0.00229372
0.00209798
0.00190988
0.00172917
0.00155562
0.00138899
0.00122904
0.00107559
0.000928288
0.000787186
0.000651912
0.000522142
0.00039782
0.000278856
0.000164981
5.60172e-05
6.64761e-07
1.62653e-07
6.16907e-08
2.67349e-08
1.13467e-08
4.8679e-09
2.15255e-09
9.61172e-10
9.85233e-10
7.93932e-10
8.48948e-10
8.10461e-10
8.23509e-10
8.62635e-10
9.86348e-10
8.13662e-10
9.44145e-10
9.86857e-10
9.76375e-10
9.36201e-10
8.97372e-10
8.59993e-10
8.24067e-10
7.89562e-10
7.5644e-10
7.24658e-10
6.94178e-10
6.64959e-10
6.36963e-10
6.1015e-10
5.84483e-10
5.59924e-10
5.36434e-10
5.13978e-10
4.9252e-10
4.72024e-10
4.52458e-10
4.33787e-10
4.15981e-10
3.99007e-10
3.82836e-10
3.6744e-10
3.52791e-10
3.38866e-10
3.25636e-10
3.1294e-10
3.00513e-10
2.87908e-10
2.74168e-10
2.59906e-10
2.45337e-10
2.30688e-10
2.162e-10
2.02098e-10
1.88573e-10
1.75775e-10
1.63816e-10
1.52767e-10
1.42662e-10
1.33507e-10
1.25284e-10
1.17953e-10
1.11463e-10
1.05752e-10
1.00755e-10
9.64036e-11
9.26322e-11
8.93767e-11
8.65772e-11
8.41789e-11
8.21323e-11
8.03932e-11
7.89227e-11
7.76869e-11
7.66565e-11
7.58062e-11
7.51143e-11
7.45623e-11
7.41345e-11
7.38171e-11
7.35982e-11
7.34678e-11
7.34164e-11
7.34354e-11
7.35181e-11
7.36572e-11
7.38462e-11
7.4079e-11
7.43498e-11
7.46528e-11
7.49829e-11
7.53348e-11
7.57035e-11
7.60845e-11
7.64734e-11
7.6866e-11
7.72587e-11
7.76486e-11
7.80344e-11
)
;

boundaryField
{
    bc0
    {
        type            zeroGradient;
    }
    bc1
    {
        type            zeroGradient;
    }
    bc2
    {
        type            zeroGradient;
    }
    bc3
    {
        type            zeroGradient;
    }
    top
    {
        type            zeroGradient;
    }
    bottom
    {
        type            zeroGradient;
    }
}


// ************************************************************************* //
