/*--------------------------------*- C++ -*----------------------------------*\
  =========                 |
  \\      /  F ield         | OpenFOAM: The Open Source CFD Toolbox
   \\    /   O peration     | Website:  https://openfoam.org
    \\  /    A nd           | Version:  6
     \\/     M anipulation  |
\*---------------------------------------------------------------------------*/
FoamFile
{
    version     2.0;
    format      ascii;
    class       volScalarField;
    location    "864000";
    object      Cw5;
}
// * * * * * * * * * * * * * * * * * * * * * * * * * * * * * * * * * * * * * //

dimensions      [0 -3 0 0 1 0 0];

internalField   nonuniform List<scalar> 
184
(
0.000461667
0.000461667
0.000461661
0.000461855
0.000466436
0.000512719
0.000809032
0.00160617
0.0023716
0.00273837
0.00300176
0.00318946
0.00332559
0.00342721
0.00350545
0.00356753
0.00361812
0.00366039
0.00369643
0.0037278
0.0037555
0.00378037
0.00380294
0.00382444
0.0038593
0.00412883
0.00689346
0.0200582
0.00611254
0.00412535
0.00401111
0.00403768
0.00406982
0.00410094
0.00413098
0.00415991
0.00418789
0.00421489
0.00424104
0.00426631
0.00429082
0.00431452
0.00433752
0.00435979
0.00438142
0.00440237
0.00442272
0.00444244
0.00446161
0.00448019
0.00449825
0.00451576
0.00453278
0.00454926
0.00456528
0.00458082
0.00459611
0.00461079
0.00462503
0.00463885
0.00465225
0.00466519
0.0046778
0.00469006
0.00470199
0.00471352
0.00472472
0.00473556
0.00474607
0.00475624
0.0047661
0.00477563
0.00478487
0.00479379
0.00480243
0.00481077
0.00481885
0.00482672
0.00483422
0.00484139
0.00484844
0.00485515
0.00486129
0.00486673
0.00487104
0.00482179
0.00470749
0.00459459
0.00448387
0.00437549
0.00426953
0.00416596
0.00406477
0.00396595
0.00386944
0.00377523
0.00368326
0.00359353
0.00350598
0.00342059
0.00333733
0.00325616
0.00317704
0.00309995
0.00302486
0.00295173
0.00288053
0.00281124
0.00274381
0.00267822
0.00261445
0.00255245
0.00249223
0.00243366
0.00237686
0.0023217
0.00226818
0.00221627
0.00216595
0.00211718
0.00206995
0.00202423
0.00197998
0.0019372
0.00189585
0.00185591
0.00181736
0.00178019
0.00174444
0.00171037
0.00167589
0.00163741
0.00161451
0.00158527
0.00154576
0.00150245
0.00145715
0.00141065
0.00136336
0.00131565
0.00126786
0.0012203
0.00117322
0.0011269
0.00108153
0.00103733
0.000994464
0.000953083
0.000913317
0.00087527
0.000839027
0.000804648
0.000772171
0.000741608
0.000712951
0.000686168
0.00066121
0.000638012
0.000616498
0.000596582
0.000578174
0.000561185
0.000545522
0.000531097
0.000517823
0.000505617
0.000494401
0.000484099
0.000474639
0.000465953
0.000457977
0.000450654
0.000443935
0.000437786
0.000432197
0.000427182
0.000422722
0.000418996
0.000416437
0.000415682
0.000417922
0.000425178
0.000440266
0.000461667
)
;

boundaryField
{
    bc0
    {
        type            zeroGradient;
    }
    bc1
    {
        type            zeroGradient;
    }
    bc2
    {
        type            zeroGradient;
    }
    bc3
    {
        type            zeroGradient;
    }
    top
    {
        type            zeroGradient;
    }
    bottom
    {
        type            zeroGradient;
    }
}


// ************************************************************************* //
