/*--------------------------------*- C++ -*----------------------------------*\
  =========                 |
  \\      /  F ield         | OpenFOAM: The Open Source CFD Toolbox
   \\    /   O peration     | Website:  https://openfoam.org
    \\  /    A nd           | Version:  6
     \\/     M anipulation  |
\*---------------------------------------------------------------------------*/
FoamFile
{
    version     2.0;
    format      ascii;
    class       volScalarField;
    location    "864000";
    object      Cw6;
}
// * * * * * * * * * * * * * * * * * * * * * * * * * * * * * * * * * * * * * //

dimensions      [0 -3 0 0 1 0 0];

internalField   nonuniform List<scalar> 
184
(
0.000299133
0.000299133
0.000299126
0.00029898
0.000298966
0.000298995
0.000299014
0.000299021
0.000299026
0.000299033
0.000299042
0.000299053
0.000299066
0.00029908
0.000299083
0.0002991
0.000299099
0.000299114
0.00029911
0.000299125
0.000299118
0.000299133
0.000299122
0.000299137
0.000299126
0.000299154
0.000299264
0.000299884
0.000299229
0.000299151
0.000299128
0.000299136
0.000299145
0.00029913
0.000299144
0.000299129
0.000299144
0.000299129
0.000299143
0.000299128
0.000299142
0.000299128
0.000299141
0.000299127
0.00029914
0.000299127
0.000299139
0.000299127
0.000299139
0.000299127
0.000299138
0.000299128
0.000299138
0.000299128
0.000299138
0.000299128
0.000299138
0.000299129
0.000299138
0.000299129
0.000299137
0.000299129
0.000299137
0.000299129
0.000299137
0.000299129
0.000299137
0.00029913
0.000299137
0.00029913
0.000299137
0.00029913
0.000299137
0.00029913
0.000299136
0.00029913
0.000299136
0.00029913
0.000299136
0.00029913
0.000299136
0.000299131
0.000299136
0.000299131
0.000299136
0.000299131
0.000299136
0.000299131
0.000299136
0.000299131
0.000299133
0.000299136
0.000299131
0.000299135
0.000299131
0.000299135
0.000299131
0.000299135
0.000299131
0.000299135
0.000299131
0.000299135
0.000299131
0.000299133
0.000299133
0.000299133
0.000299133
0.000299133
0.000299133
0.000299133
0.000299133
0.000299133
0.00029915
0.000299117
0.000299133
0.000299133
0.000299134
0.000299134
0.000299133
0.000299133
0.000299133
0.000299133
0.000299133
0.000299133
0.000299133
0.000299133
0.000299133
0.000299136
0.000299181
0.000299458
0.000298668
0.000294976
0.000303091
0.000308871
0.000309406
0.00030898
0.00030856
0.000308343
0.000308267
0.000308234
0.000308149
0.000307922
0.000307481
0.000306775
0.000305772
0.000304462
0.00030285
0.000300961
0.000298828
0.000296498
0.00029402
0.000291447
0.00028883
0.000286213
0.000283636
0.000281129
0.000278714
0.000276408
0.00027422
0.000272155
0.000270212
0.000268392
0.000266693
0.000265111
0.000263644
0.000262289
0.000261044
0.000259905
0.000258868
0.000257932
0.000257092
0.000256347
0.000255701
0.000255164
0.000254758
0.000254524
0.000254475
0.00025476
0.000255702
0.000257766
0.000261797
0.000269218
0.000282004
0.000299133
)
;

boundaryField
{
    bc0
    {
        type            zeroGradient;
    }
    bc1
    {
        type            zeroGradient;
    }
    bc2
    {
        type            zeroGradient;
    }
    bc3
    {
        type            zeroGradient;
    }
    top
    {
        type            zeroGradient;
    }
    bottom
    {
        type            zeroGradient;
    }
}


// ************************************************************************* //
