/*--------------------------------*- C++ -*----------------------------------*\
  =========                 |
  \\      /  F ield         | OpenFOAM: The Open Source CFD Toolbox
   \\    /   O peration     | Website:  https://openfoam.org
    \\  /    A nd           | Version:  6
     \\/     M anipulation  |
\*---------------------------------------------------------------------------*/
FoamFile
{
    version     2.0;
    format      ascii;
    class       volScalarField;
    location    "864000";
    object      Cw8;
}
// * * * * * * * * * * * * * * * * * * * * * * * * * * * * * * * * * * * * * //

dimensions      [0 -3 0 0 1 0 0];

internalField   nonuniform List<scalar> 
184
(
0.00087567
0.00087567
0.000875705
0.000878718
0.000901638
0.000979409
0.00103499
0.00104541
0.00103218
0.00101648
0.00100093
0.000985705
0.000971239
0.000957785
0.00094541
0.000934069
0.000923668
0.000914104
0.000905273
0.000897084
0.000889458
0.000882328
0.000875635
0.00086933
0.000863367
0.00085769
0.000852045
0.000845573
0.000851568
0.000856126
0.000860308
0.000864298
0.000868119
0.000871786
0.000875307
0.000878693
0.000881949
0.000885084
0.000888102
0.000891009
0.00089381
0.000896508
0.000899109
0.000901615
0.000904031
0.000906359
0.000908603
0.000910766
0.00091285
0.000914858
0.000916792
0.000918655
0.000920448
0.000922173
0.000923831
0.000925428
0.000927006
0.000928494
0.000929915
0.00093129
0.000932601
0.000933853
0.000935064
0.000936237
0.000937367
0.00093845
0.000939488
0.000940484
0.000941438
0.000942354
0.000943231
0.000944072
0.000944877
0.000945649
0.000946387
0.000947094
0.000947771
0.000948417
0.000949033
0.000949618
0.000950171
0.000950682
0.000951133
0.000951479
0.000951623
0.000951357
0.000950719
0.000949926
0.000949066
0.000948178
0.00094728
0.00094638
0.000945482
0.000944588
0.0009437
0.000942816
0.000941939
0.000941069
0.000940206
0.00093935
0.000938502
0.000937662
0.000936831
0.000936008
0.000935195
0.000934391
0.000933597
0.000932813
0.000932039
0.000931276
0.000930524
0.000929783
0.000929054
0.000928336
0.000927631
0.000926937
0.000926256
0.000925588
0.000924933
0.000924291
0.000923662
0.000923046
0.000922445
0.000921857
0.000921284
0.000920727
0.000920186
0.000919666
0.000919173
0.00091872
0.000918332
0.000917986
0.000917543
0.000916987
0.00091634
0.000915615
0.000914828
0.000913988
0.000913102
0.000912176
0.000911215
0.000910223
0.000909204
0.000908163
0.000907105
0.000906033
0.000904952
0.000903866
0.00090278
0.000901695
0.000900617
0.000899547
0.000898489
0.000897444
0.000896416
0.000895405
0.000894413
0.000893442
0.000892492
0.000891564
0.00089066
0.000889778
0.00088892
0.000888086
0.000887274
0.000886486
0.000885721
0.000884978
0.000884257
0.000883557
0.000882878
0.000882219
0.000881579
0.000880957
0.000880354
0.000879768
0.000879198
0.000878644
0.000878106
0.000877581
0.000877071
0.000876576
0.000876102
0.00087567
)
;

boundaryField
{
    bc0
    {
        type            zeroGradient;
    }
    bc1
    {
        type            zeroGradient;
    }
    bc2
    {
        type            zeroGradient;
    }
    bc3
    {
        type            zeroGradient;
    }
    top
    {
        type            zeroGradient;
    }
    bottom
    {
        type            zeroGradient;
    }
}


// ************************************************************************* //
