/*--------------------------------*- C++ -*----------------------------------*\
  =========                 |
  \\      /  F ield         | OpenFOAM: The Open Source CFD Toolbox
   \\    /   O peration     | Website:  https://openfoam.org
    \\  /    A nd           | Version:  6
     \\/     M anipulation  |
\*---------------------------------------------------------------------------*/
FoamFile
{
    version     2.0;
    format      ascii;
    class       volScalarField;
    location    "864000";
    object      hp;
}
// * * * * * * * * * * * * * * * * * * * * * * * * * * * * * * * * * * * * * //

dimensions      [0 1 0 0 0 0 0];

internalField   nonuniform List<scalar> 
184
(
0.02
0.0100003
5.23462e-07
-0.00999915
-0.0199987
-0.0299982
-0.0399975
-0.0499966
-0.0599954
-0.0699938
-0.0799917
-0.089989
-0.0999854
-0.109981
-0.119975
-0.129967
-0.139957
-0.149945
-0.159931
-0.169912
-0.17989
-0.189863
-0.199832
-0.209794
-0.21975
-0.229699
-0.239641
-0.249575
-0.2595
-0.269417
-0.279325
-0.289225
-0.299117
-0.309001
-0.318879
-0.328752
-0.338622
-0.348489
-0.358357
-0.368226
-0.3781
-0.38798
-0.397869
-0.407768
-0.417679
-0.427603
-0.437541
-0.447494
-0.457461
-0.467443
-0.477437
-0.487444
-0.49746
-0.507486
-0.517519
-0.527558
-0.537603
-0.547651
-0.557703
-0.567756
-0.577811
-0.587867
-0.597922
-0.607978
-0.618034
-0.628089
-0.638145
-0.648199
-0.658254
-0.668308
-0.678362
-0.688415
-0.698468
-0.708521
-0.718574
-0.728627
-0.738679
-0.748731
-0.758783
-0.768835
-0.778887
-0.788938
-0.798989
-0.80904
-0.81909
-0.829139
-0.839188
-0.849236
-0.859284
-0.869331
-0.879377
-0.889423
-0.89947
-0.909516
-0.919563
-0.92961
-0.939657
-0.949704
-0.95975
-0.969795
-0.979836
-0.989874
-0.999907
-1.00994
-1.01996
-1.02998
-1.04001
-1.05003
-1.06007
-1.07013
-1.0802
-1.0903
-1.10042
-1.11054
-1.12067
-1.13077
-1.14086
-1.15092
-1.16096
-1.17098
-1.18099
-1.191
-1.201
-1.211
-1.221
-1.231
-1.24101
-1.25101
-1.26083
-1.26684
-1.21266
-0.935714
-0.674465
-0.522849
-0.432893
-0.375538
-0.336584
-0.308815
-0.288293
-0.272716
-0.260661
-0.251203
-0.243715
-0.237756
-0.233011
-0.229244
-0.226279
-0.223979
-0.222239
-0.220976
-0.220121
-0.219622
-0.219435
-0.219526
-0.219864
-0.220427
-0.221196
-0.222155
-0.223292
-0.224599
-0.226067
-0.227693
-0.229472
-0.231405
-0.233491
-0.235734
-0.238136
-0.240704
-0.243445
-0.246368
-0.249486
-0.252812
-0.256363
-0.26016
-0.264225
-0.268588
-0.273283
-0.278351
-0.28384
-0.289812
-0.296342
-0.303523
-0.311473
-0.320347
)
;

boundaryField
{
    bc0
    {
        type            fixedGradient;
        gradient        uniform -1;
    }
    bc1
    {
        type            zeroGradient;
    }
    bc2
    {
        type            zeroGradient;
    }
    bc3
    {
        type            zeroGradient;
    }
    top
    {
        type            zeroGradient;
    }
    bottom
    {
        type            zeroGradient;
    }
}


// ************************************************************************* //
