/*--------------------------------*- C++ -*----------------------------------*\
  =========                 |
  \\      /  F ield         | OpenFOAM: The Open Source CFD Toolbox
   \\    /   O peration     | Website:  https://openfoam.org
    \\  /    A nd           | Version:  6
     \\/     M anipulation  |
\*---------------------------------------------------------------------------*/
FoamFile
{
    version     2.0;
    format      ascii;
    class       surfaceScalarField;
    location    "864000";
    object      phiw;
}
// * * * * * * * * * * * * * * * * * * * * * * * * * * * * * * * * * * * * * //

dimensions      [0 3 -1 0 0 0 0];

internalField   nonuniform List<scalar> 
183
(
-5.7875e-07
-6.42192e-11
-6.17419e-11
-6.18232e-11
-6.18667e-11
-6.18678e-11
-6.18261e-11
-6.17435e-11
-6.16227e-11
-6.14656e-11
-6.12726e-11
-6.10424e-11
-6.07715e-11
-6.0455e-11
-6.00864e-11
-5.96577e-11
-5.91603e-11
-5.85847e-11
-5.79206e-11
-5.71577e-11
-5.62857e-11
-5.52942e-11
-5.41737e-11
-5.29156e-11
-5.15124e-11
-4.99586e-11
-4.82505e-11
-4.63874e-11
-4.43712e-11
-4.22074e-11
-3.9905e-11
-3.7477e-11
-3.49402e-11
-3.23154e-11
-2.96267e-11
-2.69017e-11
-2.41704e-11
-2.14645e-11
-1.88163e-11
-1.6258e-11
-1.38201e-11
-1.15302e-11
-9.4123e-12
-7.48535e-12
-5.76279e-12
-4.252e-12
-2.95408e-12
-1.86407e-12
-9.71533e-13
-2.68647e-13
2.8146e-13
6.97299e-13
9.91135e-13
1.1868e-12
1.30233e-12
1.35476e-12
1.35953e-12
1.33005e-12
1.27748e-12
1.21077e-12
1.13675e-12
1.06037e-12
9.85051e-13
9.12942e-13
8.45267e-13
7.82579e-13
7.24988e-13
6.72327e-13
6.24282e-13
5.80467e-13
5.40484e-13
5.03949e-13
4.70504e-13
4.39827e-13
4.11624e-13
3.85634e-13
3.61616e-13
3.39348e-13
3.18622e-13
2.99241e-13
2.8102e-13
2.63793e-13
2.47418e-13
2.31798e-13
2.16893e-13
2.02731e-13
1.89412e-13
1.77091e-13
1.65938e-13
1.56088e-13
1.47585e-13
1.40337e-13
1.34103e-13
1.28515e-13
1.23127e-13
1.1747e-13
1.11109e-13
1.03697e-13
9.5026e-14
8.50865e-14
7.41452e-14
6.28134e-14
5.20823e-14
4.32985e-14
3.80604e-14
3.80155e-14
4.45244e-14
5.81562e-14
7.80606e-14
1.01457e-13
1.23671e-13
1.3912e-13
1.43167e-13
1.34073e-13
1.13885e-13
8.75815e-14
6.09365e-14
3.83706e-14
2.18922e-14
1.13427e-14
5.36702e-15
2.38214e-15
1.15818e-15
1.0139e-15
1.74729e-15
2.16461e-15
-2.7928e-14
-6.92569e-13
-1.12867e-11
-7.90302e-11
-5.39839e-10
-2.53016e-09
-5.46282e-09
-7.69543e-09
-9.39132e-09
-1.07134e-08
-1.17462e-08
-1.25431e-08
-1.31437e-08
-1.35798e-08
-1.38774e-08
-1.40584e-08
-1.41408e-08
-1.41401e-08
-1.4069e-08
-1.39383e-08
-1.37572e-08
-1.35335e-08
-1.32737e-08
-1.29835e-08
-1.26676e-08
-1.23302e-08
-1.19746e-08
-1.16041e-08
-1.1221e-08
-1.08278e-08
-1.04263e-08
-1.00183e-08
-9.60516e-09
-9.18823e-09
-8.76866e-09
-8.34743e-09
-7.92547e-09
-7.50356e-09
-7.08245e-09
-6.6628e-09
-6.24521e-09
-5.83027e-09
-5.4185e-09
-5.01043e-09
-4.60656e-09
-4.20736e-09
-3.81334e-09
-3.42499e-09
-3.04281e-09
-2.66735e-09
-2.29915e-09
-1.93882e-09
-1.58702e-09
-1.24446e-09
-9.11933e-10
-5.90346e-10
-2.80719e-10
)
;

boundaryField
{
    bc0
    {
        type            calculated;
        value           uniform 4.1359e-25;
    }
    bc1
    {
        type            calculated;
        value           uniform 0;
    }
    bc2
    {
        type            calculated;
        value           uniform 2.31482e-06;
    }
    bc3
    {
        type            calculated;
        value           uniform 0;
    }
    top
    {
        type            calculated;
        value           uniform 0;
    }
    bottom
    {
        type            calculated;
        value           uniform 0;
    }
}


// ************************************************************************* //
