/*--------------------------------*- C++ -*----------------------------------*\
  =========                 |
  \\      /  F ield         | OpenFOAM: The Open Source CFD Toolbox
   \\    /   O peration     | Website:  https://openfoam.org
    \\  /    A nd           | Version:  6
     \\/     M anipulation  |
\*---------------------------------------------------------------------------*/
FoamFile
{
    version     2.0;
    format      ascii;
    class       volVectorField;
    location    "864000";
    object      Uw;
}
// * * * * * * * * * * * * * * * * * * * * * * * * * * * * * * * * * * * * * //

dimensions      [0 1 -1 0 0 0 0];

internalField   nonuniform List<vector> 
184
(
(0 -1.44678e-06 0)
(0 -2.89407e-07 0)
(0 -6.29805e-11 0)
(0 -6.17825e-11 0)
(0 -6.1845e-11 0)
(0 -6.18673e-11 0)
(0 -6.1847e-11 0)
(0 -6.17848e-11 0)
(0 -6.16831e-11 0)
(0 -6.15442e-11 0)
(0 -6.13691e-11 0)
(0 -6.11575e-11 0)
(0 -6.0907e-11 0)
(0 -6.06133e-11 0)
(0 -6.02707e-11 0)
(0 -5.9872e-11 0)
(0 -5.9409e-11 0)
(0 -5.88725e-11 0)
(0 -5.82526e-11 0)
(0 -5.75392e-11 0)
(0 -5.67217e-11 0)
(0 -5.57899e-11 0)
(0 -5.4734e-11 0)
(0 -5.35447e-11 0)
(0 -5.2214e-11 0)
(0 -5.07355e-11 0)
(0 -4.91046e-11 0)
(0 -4.7319e-11 0)
(0 -4.53793e-11 0)
(0 -4.32893e-11 0)
(0 -4.10562e-11 0)
(0 -3.8691e-11 0)
(0 -3.62086e-11 0)
(0 -3.36278e-11 0)
(0 -3.0971e-11 0)
(0 -2.82642e-11 0)
(0 -2.55361e-11 0)
(0 -2.28174e-11 0)
(0 -2.01404e-11 0)
(0 -1.75372e-11 0)
(0 -1.50391e-11 0)
(0 -1.26752e-11 0)
(0 -1.04713e-11 0)
(0 -8.44882e-12 0)
(0 -6.62407e-12 0)
(0 -5.0074e-12 0)
(0 -3.60304e-12 0)
(0 -2.40908e-12 0)
(0 -1.4178e-12 0)
(0 -6.2009e-13 0)
(0 6.40606e-15 0)
(0 4.89379e-13 0)
(0 8.44217e-13 0)
(0 1.08897e-12 0)
(0 1.24456e-12 0)
(0 1.32855e-12 0)
(0 1.35715e-12 0)
(0 1.34479e-12 0)
(0 1.30377e-12 0)
(0 1.24413e-12 0)
(0 1.17376e-12 0)
(0 1.09856e-12 0)
(0 1.02271e-12 0)
(0 9.48997e-13 0)
(0 8.79105e-13 0)
(0 8.13923e-13 0)
(0 7.53784e-13 0)
(0 6.98658e-13 0)
(0 6.48304e-13 0)
(0 6.02374e-13 0)
(0 5.60476e-13 0)
(0 5.22217e-13 0)
(0 4.87227e-13 0)
(0 4.55165e-13 0)
(0 4.25725e-13 0)
(0 3.98629e-13 0)
(0 3.73625e-13 0)
(0 3.50482e-13 0)
(0 3.28985e-13 0)
(0 3.08931e-13 0)
(0 2.90131e-13 0)
(0 2.72407e-13 0)
(0 2.55606e-13 0)
(0 2.39608e-13 0)
(0 2.24346e-13 0)
(0 2.09812e-13 0)
(0 1.96071e-13 0)
(0 1.83251e-13 0)
(0 1.71514e-13 0)
(0 1.61013e-13 0)
(0 1.51837e-13 0)
(0 1.43961e-13 0)
(0 1.3722e-13 0)
(0 1.31309e-13 0)
(0 1.25821e-13 0)
(0 1.20299e-13 0)
(0 1.14289e-13 0)
(0 1.07403e-13 0)
(0 9.93617e-14 0)
(0 9.00562e-14 0)
(0 7.96158e-14 0)
(0 6.84793e-14 0)
(0 5.74479e-14 0)
(0 4.76904e-14 0)
(0 4.06795e-14 0)
(0 3.80379e-14 0)
(0 4.12699e-14 0)
(0 5.13403e-14 0)
(0 6.81084e-14 0)
(0 8.97587e-14 0)
(0 1.12564e-13 0)
(0 1.31396e-13 0)
(0 1.41143e-13 0)
(0 1.3862e-13 0)
(0 1.23979e-13 0)
(0 1.00733e-13 0)
(0 7.4259e-14 0)
(0 4.96536e-14 0)
(0 3.01314e-14 0)
(0 1.66175e-14 0)
(0 8.35488e-15 0)
(0 3.87458e-15 0)
(0 1.77016e-15 0)
(0 1.08604e-15 0)
(0 1.38059e-15 0)
(0 1.95595e-15 0)
(0 -1.28817e-14 0)
(0 -3.60249e-13 0)
(0 -5.98964e-12 0)
(0 -4.51585e-11 0)
(0 -3.09434e-10 0)
(0 -1.535e-09 0)
(0 -3.99649e-09 0)
(0 -6.57913e-09 0)
(0 -8.54338e-09 0)
(0 -1.00524e-08 0)
(0 -1.12298e-08 0)
(0 -1.21447e-08 0)
(0 -1.28434e-08 0)
(0 -1.33617e-08 0)
(0 -1.37286e-08 0)
(0 -1.39679e-08 0)
(0 -1.40996e-08 0)
(0 -1.41405e-08 0)
(0 -1.41045e-08 0)
(0 -1.40036e-08 0)
(0 -1.38477e-08 0)
(0 -1.36453e-08 0)
(0 -1.34036e-08 0)
(0 -1.31286e-08 0)
(0 -1.28256e-08 0)
(0 -1.24989e-08 0)
(0 -1.21524e-08 0)
(0 -1.17894e-08 0)
(0 -1.14126e-08 0)
(0 -1.10244e-08 0)
(0 -1.06271e-08 0)
(0 -1.02223e-08 0)
(0 -9.81173e-09 0)
(0 -9.3967e-09 0)
(0 -8.97844e-09 0)
(0 -8.55804e-09 0)
(0 -8.13645e-09 0)
(0 -7.71452e-09 0)
(0 -7.29301e-09 0)
(0 -6.87263e-09 0)
(0 -6.45401e-09 0)
(0 -6.03774e-09 0)
(0 -5.62439e-09 0)
(0 -5.21447e-09 0)
(0 -4.80849e-09 0)
(0 -4.40696e-09 0)
(0 -4.01035e-09 0)
(0 -3.61917e-09 0)
(0 -3.2339e-09 0)
(0 -2.85508e-09 0)
(0 -2.48325e-09 0)
(0 -2.11899e-09 0)
(0 -1.76292e-09 0)
(0 -1.41574e-09 0)
(0 -1.07819e-09 0)
(0 -7.51139e-10 0)
(0 -4.35533e-10 0)
(0 -1.4036e-10 0)
)
;

boundaryField
{
    bc0
    {
        type            zeroGradient;
    }
    bc1
    {
        type            zeroGradient;
    }
    bc2
    {
        type            zeroGradient;
    }
    bc3
    {
        type            zeroGradient;
    }
    top
    {
        type            zeroGradient;
    }
    bottom
    {
        type            zeroGradient;
    }
}


// ************************************************************************* //
